3
 energy: -5.070544409099 gnorm: 0.000245042511 xtb: 6.6.1 (unknown)
O            0.00000000000600        0.00000000000000       -0.04311667687740
H            0.77206708705626       -0.00000000000000        0.52584233843671
H           -0.77206708706226       -0.00000000000000        0.52584233844070
