3
 energy: -5.065772968305 gnorm: 0.097095590200 xtb: 6.6.1 (unknown)
O            0.00000000000000        0.00000000000000        0.00000000000000
H            0.75860200000000        0.00000000000000        0.50428400000000
H           -0.75860200000000        0.00000000000000        0.50428400000000
3
 energy: -5.070023213758 gnorm: 0.022317798590 xtb: 6.6.1 (unknown)
O            0.00000000301573        0.00000000000000       -0.01922286009417
H            0.78475584153425       -0.00000000000000        0.51389542904472
H           -0.78475584454998       -0.00000000000000        0.51389543104945
3
 energy: -5.070373008464 gnorm: 0.008493646973 xtb: 6.6.1 (unknown)
O           -0.00000000061343        0.00000000000000       -0.02937624314480
H            0.78466115370244       -0.00000000000000        0.51897212177629
H           -0.78466115308901       -0.00000000000000        0.51897212136851
3
 energy: -5.070504293637 gnorm: 0.004188858966 xtb: 6.6.1 (unknown)
O           -0.00000000048555        0.00000000000000       -0.03881150375214
H            0.77960223461374       -0.00000000000000        0.52368975203746
H           -0.77960223412819       -0.00000000000000        0.52368975171469
3
 energy: -5.070536620214 gnorm: 0.002810855068 xtb: 6.6.1 (unknown)
O           -0.00000000029767        0.00000000000000       -0.04256276325663
H            0.77501757560848       -0.00000000000000        0.52556538172725
H           -0.77501757531081       -0.00000000000000        0.52556538152937
3
 energy: -5.070544214990 gnorm: 0.000617648209 xtb: 6.6.1 (unknown)
O           -0.00000000020695        0.00000000000000       -0.04343067178020
H            0.77236266534147       -0.00000000000000        0.52599933595888
H           -0.77236266513452       -0.00000000000000        0.52599933582131
3
 energy: -5.070544409098 gnorm: 0.000246253302 xtb: 6.6.1 (unknown)
O            0.00000000000600        0.00000000000000       -0.04311667687740
H            0.77206708705626       -0.00000000000000        0.52584233843671
H           -0.77206708706226       -0.00000000000000        0.52584233844070
