12
 energy: -14.419872547260 gnorm: 0.002717087549 xtb: 6.7.1 (edcfbbe)
C            1.29089365528508       -1.07705341496148       -1.82734275733762
C            1.33054735589588        0.63944013992364       -0.07197552913858
C           -0.45927373983782        0.67277548995520        1.51062270963046
C           -0.72502867593000        1.29625805976237       -0.94570384322428
C           -0.43173384479586       -0.81151411258232       -0.17936553282989
C            1.43350423442500       -1.27540364681728        1.12683047064741
H            2.08857652992993       -0.84243713071590       -0.33260221688628
H            0.19282887962130        1.76102832730405        0.44774306134797
H           -1.69499513607980        0.34194835300130        0.04754180188232
H           -3.29401841945921        0.12511719541301        0.08435116113325
H           -0.09042026864304       -0.97206753088340        1.55136853229077
H            0.35911942958956        0.14190827060108       -1.41146785751630
