3
 energy: -5.070544406858 gnorm: 0.000251375730 xtb: 6.7.1 (edcfbbe)
O           -0.00000000002352       -0.00000000000000       -0.04330680992319
H            0.77206126833451       -0.00000000000000        0.52565340496942
H           -0.77206126831099        0.00000000000000        0.52565340495377
