3
 energy: -5.065646329768 gnorm: 0.098621496591 xtb: 6.7.1 (edcfbbe)
O            0.00000000000000        0.00000000000000        0.00000000000000
H            0.75800000000000        0.00000000000000        0.50400000000000
H           -0.75800000000000        0.00000000000000        0.50400000000000
3
 energy: -5.070020158267 gnorm: 0.022444613375 xtb: 6.7.1 (edcfbbe)
O           -0.00000000000000        0.00000000000000       -0.01936528489921
H            0.78470690412362       -0.00000000000000        0.51368264244961
H           -0.78470690412362       -0.00000000000000        0.51368264244961
3
 energy: -5.070371071781 gnorm: 0.008585004795 xtb: 6.7.1 (edcfbbe)
O           -0.00000000000000        0.00000000000000       -0.02947036720371
H            0.78468153223100       -0.00000000000000        0.51873518360185
H           -0.78468153223100       -0.00000000000000        0.51873518360185
3
 energy: -5.070503572048 gnorm: 0.004203880667 xtb: 6.7.1 (edcfbbe)
O           -0.00000000000000       -0.00000000000000       -0.03893132018868
H            0.77966994520219       -0.00000000000000        0.52346566009434
H           -0.77966994520219       -0.00000000000000        0.52346566009434
3
 energy: -5.070536360339 gnorm: 0.002843374619 xtb: 6.7.1 (edcfbbe)
O           -0.00000000037570       -0.00000000000000       -0.04272055168172
H            0.77507624372047       -0.00000000000000        0.52536027596579
H           -0.77507624334477       -0.00000000000000        0.52536027571593
3
 energy: -5.070544200589 gnorm: 0.000636382949 xtb: 6.7.1 (edcfbbe)
O           -0.00000000037570       -0.00000000000000       -0.04362374386066
H            0.77237286001170       -0.00000000000000        0.52581187205526
H           -0.77237285963600        0.00000000000000        0.52581187180539
3
 energy: -5.070544406857 gnorm: 0.000252615105 xtb: 6.7.1 (edcfbbe)
O           -0.00000000002352       -0.00000000000000       -0.04330680992319
H            0.77206126833451       -0.00000000000000        0.52565340496942
H           -0.77206126831099        0.00000000000000        0.52565340495377
