      -----------------------------------------------------------      
     |                   =====================                   |     
     |                           x T B                           |     
     |                   =====================                   |     
     |                         S. Grimme                         |     
     |          Mulliken Center for Theoretical Chemistry        |     
     |                    University of Bonn                     |     
      -----------------------------------------------------------      

   * xtb version 6.6.1 (unknown) compiled by 'builduser@buildhost' on 2023-08-07

   xtb is free software: you can redistribute it and/or modify it under
   the terms of the GNU Lesser General Public License as published by
   the Free Software Foundation, either version 3 of the License, or
   (at your option) any later version.
   
   xtb is distributed in the hope that it will be useful,
   but WITHOUT ANY WARRANTY; without even the implied warranty of
   MERCHANTABILITY or FITNESS FOR A PARTICULAR PURPOSE.  See the
   GNU Lesser General Public License for more details.
   
   Cite this work as:
   * C. Bannwarth, E. Caldeweyher, S. Ehlert, A. Hansen, P. Pracht,
     J. Seibert, S. Spicher, S. Grimme, WIREs Comput. Mol. Sci., 2020, 11,
     e01493. DOI: 10.1002/wcms.1493
   
   for GFN2-xTB:
   * C. Bannwarth, S. Ehlert and S. Grimme., J. Chem. Theory Comput., 2019,
     15, 1652-1671. DOI: 10.1021/acs.jctc.8b01176
   for GFN1-xTB:
   * S. Grimme, C. Bannwarth, P. Shushkov, J. Chem. Theory Comput., 2017,
     13, 1989-2009. DOI: 10.1021/acs.jctc.7b00118
   for GFN0-xTB:
   * P. Pracht, E. Caldeweyher, S. Ehlert, S. Grimme, ChemRxiv, 2019, preprint.
     DOI: 10.26434/chemrxiv.8326202.v1
   for GFN-FF:
   * S. Spicher and S. Grimme, Angew. Chem. Int. Ed., 2020, 59, 15665-15673.
     DOI: 10.1002/anie.202004239
   
   for ALPB and GBSA implicit solvation:
   * S. Ehlert, M. Stahn, S. Spicher, S. Grimme, J. Chem. Theory Comput.,
     2021, 17, 4250-4261. DOI: 10.1021/acs.jctc.1c00471
   
   for DFT-D4:
   * E. Caldeweyher, C. Bannwarth and S. Grimme, J. Chem. Phys., 2017,
     147, 034112. DOI: 10.1063/1.4993215
   * E. Caldeweyher, S. Ehlert, A. Hansen, H. Neugebauer, S. Spicher,
     C. Bannwarth and S. Grimme, J. Chem. Phys., 2019, 150, 154122.
     DOI: 10.1063/1.5090222
   * E. Caldeweyher, J.-M. Mewes, S. Ehlert and S. Grimme, Phys. Chem. Chem. Phys.
     2020, 22, 8499-8512. DOI: 10.1039/D0CP00502A
   
   for sTDA-xTB:
   * S. Grimme and C. Bannwarth, J. Chem. Phys., 2016, 145, 054103.
     DOI: 10.1063/1.4959605
   
   in the mass-spec context:
   * V. Asgeirsson, C. Bauer and S. Grimme, Chem. Sci., 2017, 8, 4879.
     DOI: 10.1039/c7sc00601b
   * J. Koopman and S. Grimme, ACS Omega 2019, 4, 12, 15120-15133.
     DOI: 10.1021/acsomega.9b02011
   
   for metadynamics refer to:
   * S. Grimme, J. Chem. Theory Comput., 2019, 155, 2847-2862
     DOI: 10.1021/acs.jctc.9b00143
   
   for SPH calculations refer to:
   * S. Spicher and S. Grimme, J. Chem. Theory Comput., 2021, 17, 1701-1714
     DOI: 10.1021/acs.jctc.0c01306
   
   with help from (in alphabetical order)
   P. Atkinson, C. Bannwarth, F. Bohle, G. Brandenburg, E. Caldeweyher
   M. Checinski, S. Dohm, S. Ehlert, S. Ehrlich, I. Gerasimov, C. Hölzer
   A. Katbashev, J. Koopman, C. Lavigne, S. Lehtola, F. März, M. Müller,
   F. Musil, H. Neugebauer, J. Pisarek, C. Plett, P. Pracht, F. Pultar,
   J. Seibert, P. Shushkov, S. Spicher, M. Stahn, M. Steiner, T. Strunk,
   J. Stückrath, T. Rose, and J. Unsleber
   
 * started run on 2025/11/16 at 10:44:59.404     

           -------------------------------------------------
          |                Calculation Setup                |
           -------------------------------------------------

          program call               : /usr/bin/xtb /app/jobs/manualwatertest_20251116_104459_4610de98/manualwatertest.xyz --opt normal --json
          hostname                   : 32eae8144d8a
          coordinate file            : /app/jobs/manualwatertest_20251116_104459_4610de98/manualwatertest.xyz
          omp threads                :                     1

   ID    Z sym.   atoms
    1    8 O      1
    2    1 H      2, 3

           -------------------------------------------------
          |                 G F N 2 - x T B                 |
           -------------------------------------------------

        Reference                      10.1021/acs.jctc.8b01176
      * Hamiltonian:
        H0-scaling (s, p, d)           1.850000    2.230000    2.230000
        zeta-weighting                 0.500000
      * Dispersion:
        s8                             2.700000
        a1                             0.520000
        a2                             5.000000
        s9                             5.000000
      * Repulsion:
        kExp                           1.500000    1.000000
        rExp                           1.000000
      * Coulomb:
        alpha                          2.000000
        third order                    shell-resolved
        anisotropic                    true
        a3                             3.000000
        a5                             4.000000
        cn-shift                       1.200000
        cn-exp                         4.000000
        max-rad                        5.000000


          ...................................................
          :                      SETUP                      :
          :.................................................:
          :  # basis functions                   6          :
          :  # atomic orbitals                   6          :
          :  # shells                            4          :
          :  # electrons                         8          :
          :  max. iterations                   250          :
          :  Hamiltonian                  GFN2-xTB          :
          :  restarted?                      false          :
          :  GBSA solvation                  false          :
          :  PC potential                    false          :
          :  electronic temp.          300.0000000     K    :
          :  accuracy                    1.0000000          :
          :  -> integral cutoff          0.2500000E+02      :
          :  -> integral neglect         0.1000000E-07      :
          :  -> SCF convergence          0.1000000E-05 Eh   :
          :  -> wf. convergence          0.1000000E-03 e    :
          :  Broyden damping             0.4000000          :
          ...................................................

 iter      E             dE          RMSdq      gap      omega  full diag
   1     -5.1186464 -0.511865E+01  0.452E+00   16.53       0.0  T
   2     -5.1191833 -0.536927E-03  0.267E+00   16.37       1.0  T
   3     -5.1193574 -0.174092E-03  0.291E-01   16.22       1.0  T
   4     -5.1193920 -0.346010E-04  0.875E-02   16.36       1.0  T
   5     -5.1193956 -0.356278E-05  0.433E-02   16.31       1.3  T
   6     -5.1193960 -0.476166E-06  0.102E-03   16.33      56.6  T
   7     -5.1193960 -0.428119E-09  0.464E-04   16.33     124.6  T
   8     -5.1193960 -0.813305E-10  0.972E-06   16.33    5941.1  T

   *** convergence criteria satisfied after 8 iterations ***

         #    Occupation            Energy/Eh            Energy/eV
      -------------------------------------------------------------
         1        2.0000           -0.6845151             -18.6266
         2        2.0000           -0.5759739             -15.6730
         3        2.0000           -0.5039716             -13.7138
         4        2.0000           -0.4465085             -12.1501 (HOMO)
         5                          0.1534904               4.1767 (LUMO)
         6                          0.3825682              10.4102
      -------------------------------------------------------------
                  HL-Gap            0.5999989 Eh           16.3268 eV
             Fermi-level           -0.1465090 Eh           -3.9867 eV

 SCC (total)                   0 d,  0 h,  0 min,  0.001 sec
 SCC setup                      ...        0 min,  0.000 sec (  9.605%)
 Dispersion                     ...        0 min,  0.000 sec (  1.104%)
 classical contributions        ...        0 min,  0.000 sec (  1.513%)
 integral evaluation            ...        0 min,  0.000 sec (  7.014%)
 iterations                     ...        0 min,  0.000 sec ( 65.599%)
 molecular gradient             ...        0 min,  0.000 sec (  9.790%)
 printout                       ...        0 min,  0.000 sec (  4.654%)

         :::::::::::::::::::::::::::::::::::::::::::::::::::::
         ::                     SUMMARY                     ::
         :::::::::::::::::::::::::::::::::::::::::::::::::::::
         :: total energy              -5.065772968305 Eh    ::
         :: gradient norm              0.097095675437 Eh/a0 ::
         :: HOMO-LUMO gap             16.326799898512 eV    ::
         ::.................................................::
         :: SCC energy                -5.119396049048 Eh    ::
         :: -> isotropic ES            0.031661226367 Eh    ::
         :: -> anisotropic ES         -0.000242744772 Eh    ::
         :: -> anisotropic XC         -0.001548921203 Eh    ::
         :: -> dispersion             -0.000139643256 Eh    ::
         :: repulsion energy           0.053623080734 Eh    ::
         :: add. restraining           0.000000000000 Eh    ::
         :: total charge              -0.000000000000 e     ::
         :::::::::::::::::::::::::::::::::::::::::::::::::::::

      ----------------------------------------------------------- 
     |                   =====================                   |
     |                        A N C O P T                        |
     |                   =====================                   |
     |               Approximate Normal Coordinate               |
     |                Rational Function Optimizer                |
      ----------------------------------------------------------- 

          ...................................................
          :                      SETUP                      :
          :.................................................:
          :   optimization level            normal          :
          :   max. optcycles                   200          :
          :   ANC micro-cycles                  20          :
          :   degrees of freedom                 3          :
          :.................................................:
          :   RF solver                   davidson          :
          :   write xtbopt.log                true          :
          :   linear?                        false          :
          :   energy convergence         0.5000000E-05 Eh   :
          :   grad. convergence          0.1000000E-02 Eh/α :
          :   maxmium RF displ.          1.0000000          :
          :   Hlow (freq-cutoff)         0.1000000E-01      :
          :   Hmax (freq-cutoff)         5.0000000          :
          :   S6 in model hess.         20.0000000          :
          ...................................................

generating ANC from model Hessian ...
Using Lindh-Hessian (1995)
 Shifting diagonal of input Hessian by    0.0000000000000000     
 Lowest  eigenvalues of input Hessian
    0.000000    0.000000    0.000000    0.000000    0.000000    0.000000
    0.430370    1.374517    1.690871
 Highest eigenvalues
    0.000000    0.000000    0.000000    0.430370    1.374517    1.690871


........................................................................
.............................. CYCLE    1 ..............................
........................................................................

 iter      E             dE          RMSdq      gap      omega  full diag
   1     -5.1193960 -0.511940E+01  0.195E-08   16.33       0.0  T
   2     -5.1193960 -0.888178E-15  0.112E-08   16.33  100000.0  T
   3     -5.1193960 -0.888178E-15  0.279E-09   16.33  100000.0  T
     SCC iter.                  ...        0 min,  0.000 sec
     gradient                   ...        0 min,  0.000 sec
 * total energy  :    -5.0657730 Eh     change       -0.3286260E-13 Eh
   gradient norm :     0.0970956 Eh/α   predicted     0.0000000E+00 (-100.00%)
   displ. norm   :     0.0828538 α      lambda       -0.7462989E-02
   maximum displ.:     0.0687100 α      in ANC's #2, #1, #3, ...

........................................................................
.............................. CYCLE    2 ..............................
........................................................................

 iter      E             dE          RMSdq      gap      omega  full diag
   1     -5.1077815 -0.510778E+01  0.363E-01   14.51       0.0  T
   2     -5.1078026 -0.210273E-04  0.200E-01   14.55       1.0  T
   3     -5.1078062 -0.358394E-05  0.417E-02   14.56       1.4  T
   4     -5.1078066 -0.424110E-06  0.865E-03   14.55       6.7  T
   5     -5.1078066 -0.292065E-08  0.767E-04   14.55      75.3  T
   6     -5.1078066 -0.253614E-09  0.668E-06   14.55    8639.2  T
     SCC iter.                  ...        0 min,  0.000 sec
     gradient                   ...        0 min,  0.000 sec
 * total energy  :    -5.0700232 Eh     change       -0.4250245E-02 Eh
   gradient norm :     0.0223178 Eh/α   predicted    -0.3757111E-02 ( -11.60%)
   displ. norm   :     0.0235007 α      lambda       -0.5082914E-03
   maximum displ.:     0.0214412 α      in ANC's #2, #1, #3, ...

........................................................................
.............................. CYCLE    3 ..............................
........................................................................

 iter      E             dE          RMSdq      gap      omega  full diag
   1     -5.1052822 -0.510528E+01  0.107E-01   14.26       0.0  T
   2     -5.1052853 -0.309851E-05  0.557E-02   14.27       1.0  T
   3     -5.1052858 -0.478261E-06  0.155E-02   14.28       3.7  T
   4     -5.1052858 -0.435750E-07  0.254E-03   14.28      22.7  T
   5     -5.1052858 -0.126010E-09  0.141E-04   14.28     410.1  T
   6     -5.1052858 -0.454836E-11  0.208E-05   14.28    2780.4  T
     SCC iter.                  ...        0 min,  0.000 sec
     gradient                   ...        0 min,  0.000 sec
 * total energy  :    -5.0703730 Eh     change       -0.3497947E-03 Eh
   gradient norm :     0.0084936 Eh/α   predicted    -0.2542847E-03 ( -27.30%)
   displ. norm   :     0.0256837 α      lambda       -0.2104283E-03
   maximum displ.:     0.0211185 α      in ANC's #1, #2, #3, ...

........................................................................
.............................. CYCLE    4 ..............................
........................................................................

 iter      E             dE          RMSdq      gap      omega  full diag
   1     -5.1041555 -0.510416E+01  0.819E-02   14.20       0.0  T
   2     -5.1041574 -0.190956E-05  0.425E-02   14.21       1.4  T
   3     -5.1041576 -0.280980E-06  0.123E-02   14.22       4.7  T
   4     -5.1041577 -0.255209E-07  0.170E-03   14.22      34.0  T
   5     -5.1041577 -0.481473E-10  0.829E-05   14.22     696.5  T
   6     -5.1041577 -0.142997E-11  0.274E-05   14.22    2105.8  T
     SCC iter.                  ...        0 min,  0.000 sec
     gradient                   ...        0 min,  0.000 sec
 * total energy  :    -5.0705043 Eh     change       -0.1312852E-03 Eh
   gradient norm :     0.0041889 Eh/α   predicted    -0.1052841E-03 ( -19.81%)
   displ. norm   :     0.0150166 α      lambda       -0.4909375E-04
   maximum displ.:     0.0147007 α      in ANC's #1, #2, #3, ...

........................................................................
.............................. CYCLE    5 ..............................
........................................................................

 iter      E             dE          RMSdq      gap      omega  full diag
   1     -5.1043414 -0.510434E+01  0.324E-02   14.29       0.0  T
   2     -5.1043415 -0.171247E-06  0.179E-02   14.29       3.2  T
   3     -5.1043416 -0.230028E-07  0.384E-03   14.29      15.0  T
   4     -5.1043416 -0.330552E-08  0.516E-04   14.29     111.9  T
   5     -5.1043416 -0.106368E-10  0.165E-05   14.29    3506.4  T
     SCC iter.                  ...        0 min,  0.000 sec
     gradient                   ...        0 min,  0.000 sec
 * total energy  :    -5.0705366 Eh     change       -0.3232658E-04 Eh
   gradient norm :     0.0028109 Eh/α   predicted    -0.2455267E-04 ( -24.05%)
   displ. norm   :     0.0073740 α      lambda       -0.1362903E-04
   maximum displ.:     0.0073068 α      in ANC's #1, #2, #3, ...

........................................................................
.............................. CYCLE    6 ..............................
........................................................................

 iter      E             dE          RMSdq      gap      omega  full diag
   1     -5.1047951 -0.510480E+01  0.157E-02   14.37       0.0  T
   2     -5.1047951 -0.137914E-08  0.923E-03   14.37       6.3  T
   3     -5.1047951 -0.660474E-09  0.278E-04   14.37     207.4  T
   4     -5.1047951 -0.176419E-10  0.905E-05   14.37     638.2  T
     SCC iter.                  ...        0 min,  0.000 sec
     gradient                   ...        0 min,  0.000 sec
 * total energy  :    -5.0705442 Eh     change       -0.7594776E-05 Eh
   gradient norm :     0.0006176 Eh/α   predicted    -0.6816202E-05 ( -10.25%)
   displ. norm   :     0.0010734 α      lambda       -0.4327747E-06
   maximum displ.:     0.0009818 α      in ANC's #2, #1, #3, ...

........................................................................
.............................. CYCLE    7 ..............................
........................................................................

 iter      E             dE          RMSdq      gap      omega  full diag
   1     -5.1049609 -0.510496E+01  0.495E-03   14.40       0.0  T
   2     -5.1049609 -0.465631E-08  0.269E-03   14.40      21.5  T
   3     -5.1049609 -0.784794E-09  0.623E-04   14.40      92.7  T
   4     -5.1049609 -0.927720E-10  0.131E-04   14.40     440.2  T
     SCC iter.                  ...        0 min,  0.000 sec
     gradient                   ...        0 min,  0.000 sec
 * total energy  :    -5.0705444 Eh     change       -0.1941083E-06 Eh
   gradient norm :     0.0002463 Eh/α   predicted    -0.2164160E-06 (  11.49%)
   displ. norm   :     0.0003817 α      lambda       -0.5410198E-07
   maximum displ.:     0.0002961 α      in ANC's #1, #2, #3, ...

   *** GEOMETRY OPTIMIZATION CONVERGED AFTER 7 ITERATIONS ***

------------------------------------------------------------------------
 total energy gain   :        -0.0047714 Eh       -2.9941 kcal/mol
 total RMSD          :         0.0612457 a0        0.0324 Å
 total power (kW/mol):        -1.7896309 (step)-6497.2046 (real)
------------------------------------------------------------------------

 ANCopt (total)                0 d,  0 h,  0 min,  0.002 sec
 optimizer setup                ...        0 min,  0.000 sec (  1.859%)
 model hessian                  ...        0 min,  0.000 sec (  0.918%)
 ANC generation                 ...        0 min,  0.000 sec (  1.197%)
 coordinate transformation      ...        0 min,  0.000 sec (  0.402%)
 single point calculation       ...        0 min,  0.001 sec ( 73.996%)
 optimization log               ...        0 min,  0.000 sec (  6.179%)
 hessian update                 ...        0 min,  0.000 sec (  0.516%)
 rational function              ...        0 min,  0.000 sec (  7.132%)

================
 final structure:
================
3
 xtb: 6.6.1 (unknown)
O            0.00000000000600        0.00000000000000       -0.04311667687740
H            0.77206708705626       -0.00000000000000        0.52584233843671
H           -0.77206708706226       -0.00000000000000        0.52584233844070

 Bond Distances (Angstroems)
 ---------------------------
O1-H2=0.9591         O1-H3=0.9591         H2-O1=0.9591         H3-O1=0.9591         
 O  H  Rav=0.9591 sigma=0.0000  Rmin=0.9591  Rmax=0.9591     2

 selected bond angles (degree)
 --------------------
H3-O1-H2=107.22                

 selected dihedral angles (degree)
 ---------------------------------

           -------------------------------------------------
          |                Final Singlepoint                |
           -------------------------------------------------

          ...................................................
          :                      SETUP                      :
          :.................................................:
          :  # basis functions                   6          :
          :  # atomic orbitals                   6          :
          :  # shells                            4          :
          :  # electrons                         8          :
          :  max. iterations                   250          :
          :  Hamiltonian                  GFN2-xTB          :
          :  restarted?                      false          :
          :  GBSA solvation                  false          :
          :  PC potential                    false          :
          :  electronic temp.          300.0000000     K    :
          :  accuracy                    1.0000000          :
          :  -> integral cutoff          0.2500000E+02      :
          :  -> integral neglect         0.1000000E-07      :
          :  -> SCF convergence          0.1000000E-05 Eh   :
          :  -> wf. convergence          0.1000000E-03 e    :
          :  Broyden damping             0.4000000          :
          ...................................................

 iter      E             dE          RMSdq      gap      omega  full diag
   1     -5.1049609 -0.510496E+01  0.422E-07   14.40       0.0  T
   2     -5.1049609  0.355271E-14  0.247E-07   14.40  100000.0  T
   3     -5.1049609 -0.266454E-14  0.289E-08   14.40  100000.0  T

   *** convergence criteria satisfied after 3 iterations ***

         #    Occupation            Energy/Eh            Energy/eV
      -------------------------------------------------------------
         1        2.0000           -0.6801060             -18.5066
         2        2.0000           -0.5683196             -15.4648
         3        2.0000           -0.5108750             -13.9016
         4        2.0000           -0.4463940             -12.1470 (HOMO)
         5                          0.0826675               2.2495 (LUMO)
         6                          0.2517936               6.8517
      -------------------------------------------------------------
                  HL-Gap            0.5290614 Eh           14.3965 eV
             Fermi-level           -0.1818633 Eh           -4.9488 eV

 SCC (total)                   0 d,  0 h,  0 min,  0.000 sec
 SCC setup                      ...        0 min,  0.000 sec ( 14.379%)
 Dispersion                     ...        0 min,  0.000 sec (  1.567%)
 classical contributions        ...        0 min,  0.000 sec (  0.844%)
 integral evaluation            ...        0 min,  0.000 sec ( 15.066%)
 iterations                     ...        0 min,  0.000 sec ( 34.821%)
 molecular gradient             ...        0 min,  0.000 sec ( 19.955%)
 printout                       ...        0 min,  0.000 sec ( 11.642%)

         :::::::::::::::::::::::::::::::::::::::::::::::::::::
         ::                     SUMMARY                     ::
         :::::::::::::::::::::::::::::::::::::::::::::::::::::
         :: total energy              -5.070544409099 Eh    ::
         :: gradient norm              0.000245042511 Eh/a0 ::
         :: HOMO-LUMO gap             14.396494810882 eV    ::
         ::.................................................::
         :: SCC energy                -5.104960898787 Eh    ::
         :: -> isotropic ES            0.031459075611 Eh    ::
         :: -> anisotropic ES          0.000394815735 Eh    ::
         :: -> anisotropic XC         -0.000883288183 Eh    ::
         :: -> dispersion             -0.000141081149 Eh    ::
         :: repulsion energy           0.034416489662 Eh    ::
         :: add. restraining           0.000000000000 Eh    ::
         :: total charge              -0.000000000000 e     ::
         :::::::::::::::::::::::::::::::::::::::::::::::::::::

           -------------------------------------------------
          |                Property Printout                |
           -------------------------------------------------

    * Orbital Energies and Occupations

         #    Occupation            Energy/Eh            Energy/eV
      -------------------------------------------------------------
         1        2.0000           -0.6801060             -18.5066
         2        2.0000           -0.5683196             -15.4648
         3        2.0000           -0.5108750             -13.9016
         4        2.0000           -0.4463940             -12.1470 (HOMO)
         5                          0.0826675               2.2495 (LUMO)
         6                          0.2517936               6.8517
      -------------------------------------------------------------
                  HL-Gap            0.5290614 Eh           14.3965 eV
             Fermi-level           -0.1818633 Eh           -4.9488 eV

     #   Z          covCN         q      C6AA      α(0)
     1   8 O        1.611    -0.565    24.358     6.661
     2   1 H        0.805     0.282     0.776     1.384
     3   1 H        0.805     0.282     0.776     1.384

 Mol. C6AA /au·bohr⁶  :         44.535372
 Mol. C8AA /au·bohr⁸  :        795.742175
 Mol. α(0) /au        :          9.429118


Wiberg/Mayer (AO) data.
largest (>0.10) Wiberg bond orders for each atom

 ---------------------------------------------------------------------------
     #   Z sym  total        # sym  WBO       # sym  WBO       # sym  WBO
 ---------------------------------------------------------------------------
     1   8 O    1.840 --     3 H    0.920     2 H    0.920
     2   1 H    0.920 --     1 O    0.920
     3   1 H    0.920 --     1 O    0.920
 ---------------------------------------------------------------------------

Topologies differ in total number of bonds
Writing topology from bond orders to xtbtopo.mol

molecular dipole:
                 x           y           z       tot (Debye)
 q only:       -0.000      -0.000       0.607
   full:       -0.000      -0.000       0.872       2.217
molecular quadrupole (traceless):
                xx          xy          yy          xz          yz          zz
 q only:        0.925       0.000      -0.878      -0.000      -0.000      -0.047
  q+dip:        1.193      -0.000      -1.125      -0.000       0.000      -0.067
   full:        1.397      -0.000      -1.384      -0.000      -0.000      -0.012

           -------------------------------------------------
          |                Geometry Summary                 |
           -------------------------------------------------

      molecular mass/u    :       18.0152864
   center of mass at/Å    :        0.0000000      -0.0000000       0.0205489
  moments of inertia/u·Å² :        0.5795484E+00   0.1201642E+01   0.1781191E+01
rotational constants/cm⁻¹ :        0.2908753E+02   0.1402883E+02   0.9464250E+01

 * 2 selected distances

     #   Z          #   Z                                           value/Å
     1   8 O        2   1 H                                       0.9590631 (min)
     1   8 O        3   1 H                                       0.9590631 (max)

 * 1 distinct bonds (by element types)

   Z      Z             #   av. dist./Å        max./Å        min./Å
   1 H    8 O           2     0.9590631     0.9590631     0.9590631


optimized geometry written to: xtbopt.xyz


           -------------------------------------------------
          | TOTAL ENERGY               -5.070544409099 Eh   |
          | GRADIENT NORM               0.000245042511 Eh/α |
          | HOMO-LUMO GAP              14.396494810882 eV   |
           -------------------------------------------------

------------------------------------------------------------------------
 * finished run on 2025/11/16 at 10:44:59.411     
------------------------------------------------------------------------
 total:
 * wall-time:     0 d,  0 h,  0 min,  0.007 sec
 *  cpu-time:     0 d,  0 h,  0 min,  0.007 sec
 * ratio c/w:     1.000 speedup
 SCF:
 * wall-time:     0 d,  0 h,  0 min,  0.001 sec
 *  cpu-time:     0 d,  0 h,  0 min,  0.001 sec
 * ratio c/w:     0.999 speedup
 ANC optimizer:
 * wall-time:     0 d,  0 h,  0 min,  0.002 sec
 *  cpu-time:     0 d,  0 h,  0 min,  0.002 sec
 * ratio c/w:     1.000 speedup

