2
 energy: -0.982686139534 gnorm: 0.000194791685 xtb: 6.6.1 (unknown)
H           -0.01848467360904        0.00000000000000        0.00000000000000
H            0.75848467360904        0.00000000000000        0.00000000000000
