2
 energy: -0.981983694723 gnorm: 0.029902840595 xtb: 6.6.1 (unknown)
H            0.00000000000000        0.00000000000000        0.00000000000000
H            0.74000000000000        0.00000000000000        0.00000000000000
2
 energy: -0.982674982106 gnorm: 0.003505240022 xtb: 6.6.1 (unknown)
H           -0.01594664476867        0.00000000000000        0.00000000000000
H            0.75594664476867        0.00000000000000        0.00000000000000
2
 energy: -0.982686018949 gnorm: 0.000409900466 xtb: 6.6.1 (unknown)
H           -0.01806407306319        0.00000000000000        0.00000000000000
H            0.75806407306319        0.00000000000000        0.00000000000000
2
 energy: -0.982686139534 gnorm: 0.000194791685 xtb: 6.6.1 (unknown)
H           -0.01848467360904        0.00000000000000        0.00000000000000
H            0.75848467360904        0.00000000000000        0.00000000000000
