3
 energy: -5.070276993755 gnorm: 0.010003641805 xtb: 6.6.1 (unknown)
O            0.00000000000000        0.00000000000000        0.11872000000000
H            0.00000000000000        0.75545300000000       -0.47488000000000
H            0.00000000000000       -0.75545300000000       -0.47488000000000
3
 energy: -5.070462043255 gnorm: 0.006266114736 xtb: 6.6.1 (unknown)
O           -0.00000000000000        0.00000000073318        0.11182286226331
H            0.00000000000000        0.76374039739317       -0.47143143084361
H           -0.00000000000000       -0.76374039812635       -0.47143143141970
3
 energy: -5.070543601613 gnorm: 0.001168396722 xtb: 6.6.1 (unknown)
O           -0.00000000000000        0.00000000073318        0.10296697946001
H            0.00000000000000        0.77235523902333       -0.46700348944196
H           -0.00000000000000       -0.77235523975651       -0.46700349001805
3
 energy: -5.070544408476 gnorm: 0.000209084613 xtb: 6.6.1 (unknown)
O           -0.00000000000000       -0.00000000016005        0.10215079174841
H            0.00000000000000        0.77227700145476       -0.46659539593708
H           -0.00000000000000       -0.77227700129471       -0.46659539581132
