3
 energy: -5.070544408476 gnorm: 0.000209081879 xtb: 6.6.1 (unknown)
O           -0.00000000000000       -0.00000000016005        0.10215079174841
H            0.00000000000000        0.77227700145476       -0.46659539593708
H           -0.00000000000000       -0.77227700129471       -0.46659539581132
