      -----------------------------------------------------------      
     |                   =====================                   |     
     |                           x T B                           |     
     |                   =====================                   |     
     |                         S. Grimme                         |     
     |          Mulliken Center for Theoretical Chemistry        |     
     |                    University of Bonn                     |     
      -----------------------------------------------------------      

   * xtb version 6.6.1 (unknown) compiled by 'builduser@buildhost' on 2023-08-07

   xtb is free software: you can redistribute it and/or modify it under
   the terms of the GNU Lesser General Public License as published by
   the Free Software Foundation, either version 3 of the License, or
   (at your option) any later version.
   
   xtb is distributed in the hope that it will be useful,
   but WITHOUT ANY WARRANTY; without even the implied warranty of
   MERCHANTABILITY or FITNESS FOR A PARTICULAR PURPOSE.  See the
   GNU Lesser General Public License for more details.
   
   Cite this work as:
   * C. Bannwarth, E. Caldeweyher, S. Ehlert, A. Hansen, P. Pracht,
     J. Seibert, S. Spicher, S. Grimme, WIREs Comput. Mol. Sci., 2020, 11,
     e01493. DOI: 10.1002/wcms.1493
   
   for GFN2-xTB:
   * C. Bannwarth, S. Ehlert and S. Grimme., J. Chem. Theory Comput., 2019,
     15, 1652-1671. DOI: 10.1021/acs.jctc.8b01176
   for GFN1-xTB:
   * S. Grimme, C. Bannwarth, P. Shushkov, J. Chem. Theory Comput., 2017,
     13, 1989-2009. DOI: 10.1021/acs.jctc.7b00118
   for GFN0-xTB:
   * P. Pracht, E. Caldeweyher, S. Ehlert, S. Grimme, ChemRxiv, 2019, preprint.
     DOI: 10.26434/chemrxiv.8326202.v1
   for GFN-FF:
   * S. Spicher and S. Grimme, Angew. Chem. Int. Ed., 2020, 59, 15665-15673.
     DOI: 10.1002/anie.202004239
   
   for ALPB and GBSA implicit solvation:
   * S. Ehlert, M. Stahn, S. Spicher, S. Grimme, J. Chem. Theory Comput.,
     2021, 17, 4250-4261. DOI: 10.1021/acs.jctc.1c00471
   
   for DFT-D4:
   * E. Caldeweyher, C. Bannwarth and S. Grimme, J. Chem. Phys., 2017,
     147, 034112. DOI: 10.1063/1.4993215
   * E. Caldeweyher, S. Ehlert, A. Hansen, H. Neugebauer, S. Spicher,
     C. Bannwarth and S. Grimme, J. Chem. Phys., 2019, 150, 154122.
     DOI: 10.1063/1.5090222
   * E. Caldeweyher, J.-M. Mewes, S. Ehlert and S. Grimme, Phys. Chem. Chem. Phys.
     2020, 22, 8499-8512. DOI: 10.1039/D0CP00502A
   
   for sTDA-xTB:
   * S. Grimme and C. Bannwarth, J. Chem. Phys., 2016, 145, 054103.
     DOI: 10.1063/1.4959605
   
   in the mass-spec context:
   * V. Asgeirsson, C. Bauer and S. Grimme, Chem. Sci., 2017, 8, 4879.
     DOI: 10.1039/c7sc00601b
   * J. Koopman and S. Grimme, ACS Omega 2019, 4, 12, 15120-15133.
     DOI: 10.1021/acsomega.9b02011
   
   for metadynamics refer to:
   * S. Grimme, J. Chem. Theory Comput., 2019, 155, 2847-2862
     DOI: 10.1021/acs.jctc.9b00143
   
   for SPH calculations refer to:
   * S. Spicher and S. Grimme, J. Chem. Theory Comput., 2021, 17, 1701-1714
     DOI: 10.1021/acs.jctc.0c01306
   
   with help from (in alphabetical order)
   P. Atkinson, C. Bannwarth, F. Bohle, G. Brandenburg, E. Caldeweyher
   M. Checinski, S. Dohm, S. Ehlert, S. Ehrlich, I. Gerasimov, C. Hölzer
   A. Katbashev, J. Koopman, C. Lavigne, S. Lehtola, F. März, M. Müller,
   F. Musil, H. Neugebauer, J. Pisarek, C. Plett, P. Pracht, F. Pultar,
   J. Seibert, P. Shushkov, S. Spicher, M. Stahn, M. Steiner, T. Strunk,
   J. Stückrath, T. Rose, and J. Unsleber
   
 * started run on 2025/11/15 at 13:46:44.691     

           -------------------------------------------------
          |                Calculation Setup                |
           -------------------------------------------------

          program call               : /usr/bin/xtb /tmp/tmpaafzl99e.xyz --opt normal --json
          coordinate file            : /tmp/tmpaafzl99e.xyz
          omp threads                :                     1

   ID    Z sym.   atoms
    1    8 O      1
    2    1 H      2, 3

           -------------------------------------------------
          |                 G F N 2 - x T B                 |
           -------------------------------------------------

        Reference                      10.1021/acs.jctc.8b01176
      * Hamiltonian:
        H0-scaling (s, p, d)           1.850000    2.230000    2.230000
        zeta-weighting                 0.500000
      * Dispersion:
        s8                             2.700000
        a1                             0.520000
        a2                             5.000000
        s9                             5.000000
      * Repulsion:
        kExp                           1.500000    1.000000
        rExp                           1.000000
      * Coulomb:
        alpha                          2.000000
        third order                    shell-resolved
        anisotropic                    true
        a3                             3.000000
        a5                             4.000000
        cn-shift                       1.200000
        cn-exp                         4.000000
        max-rad                        5.000000

q/qsh data taken from xtbrestart
CAMM data taken from xtbrestart

          ...................................................
          :                      SETUP                      :
          :.................................................:
          :  # basis functions                   6          :
          :  # atomic orbitals                   6          :
          :  # shells                            4          :
          :  # electrons                         8          :
          :  max. iterations                   250          :
          :  Hamiltonian                  GFN2-xTB          :
          :  restarted?                       true          :
          :  GBSA solvation                  false          :
          :  PC potential                    false          :
          :  electronic temp.          300.0000000     K    :
          :  accuracy                    1.0000000          :
          :  -> integral cutoff          0.2500000E+02      :
          :  -> integral neglect         0.1000000E-07      :
          :  -> SCF convergence          0.1000000E-05 Eh   :
          :  -> wf. convergence          0.1000000E-03 e    :
          :  Broyden damping             0.4000000          :
          ...................................................

 iter      E             dE          RMSdq      gap      omega  full diag
   1     -5.1054482 -0.510545E+01  0.977E-02   14.64       0.0  T
   2     -5.1054492 -0.107122E-05  0.551E-02   14.65       1.0  T
   3     -5.1054494 -0.148045E-06  0.946E-03   14.65       6.1  T
   4     -5.1054494 -0.259948E-07  0.147E-03   14.65      39.2  T
   5     -5.1054494 -0.934639E-10  0.111E-04   14.65     518.4  T
   6     -5.1054494 -0.126654E-11  0.318E-05   14.65    1816.4  T

   *** convergence criteria satisfied after 6 iterations ***

         #    Occupation            Energy/Eh            Energy/eV
      -------------------------------------------------------------
         1        2.0000           -0.6817183             -18.5505
         2        2.0000           -0.5665339             -15.4162
         3        2.0000           -0.5146748             -14.0050
         4        2.0000           -0.4475054             -12.1772 (HOMO)
         5                          0.0908286               2.4716 (LUMO)
         6                          0.2466512               6.7117
      -------------------------------------------------------------
                  HL-Gap            0.5383340 Eh           14.6488 eV
             Fermi-level           -0.1783384 Eh           -4.8528 eV

 SCC (total)                   0 d,  0 h,  0 min,  0.001 sec
 SCC setup                      ...        0 min,  0.000 sec ( 10.159%)
 Dispersion                     ...        0 min,  0.000 sec (  1.592%)
 classical contributions        ...        0 min,  0.000 sec (  1.566%)
 integral evaluation            ...        0 min,  0.000 sec (  7.841%)
 iterations                     ...        0 min,  0.001 sec ( 60.908%)
 molecular gradient             ...        0 min,  0.000 sec ( 12.586%)
 printout                       ...        0 min,  0.000 sec (  4.642%)

         :::::::::::::::::::::::::::::::::::::::::::::::::::::
         ::                     SUMMARY                     ::
         :::::::::::::::::::::::::::::::::::::::::::::::::::::
         :: total energy              -5.070369819160 Eh    ::
         :: gradient norm              0.007328077164 Eh/a0 ::
         :: HOMO-LUMO gap             14.648814570706 eV    ::
         ::.................................................::
         :: SCC energy                -5.105449412990 Eh    ::
         :: -> isotropic ES            0.031401801935 Eh    ::
         :: -> anisotropic ES          0.000592537961 Eh    ::
         :: -> anisotropic XC         -0.000840765243 Eh    ::
         :: -> dispersion             -0.000141200819 Eh    ::
         :: repulsion energy           0.035079593799 Eh    ::
         :: add. restraining           0.000000000000 Eh    ::
         :: total charge               0.000000000000 e     ::
         :::::::::::::::::::::::::::::::::::::::::::::::::::::

      ----------------------------------------------------------- 
     |                   =====================                   |
     |                        A N C O P T                        |
     |                   =====================                   |
     |               Approximate Normal Coordinate               |
     |                Rational Function Optimizer                |
      ----------------------------------------------------------- 

          ...................................................
          :                      SETUP                      :
          :.................................................:
          :   optimization level            normal          :
          :   max. optcycles                   200          :
          :   ANC micro-cycles                  20          :
          :   degrees of freedom                 3          :
          :.................................................:
          :   RF solver                   davidson          :
          :   write xtbopt.log                true          :
          :   linear?                        false          :
          :   energy convergence         0.5000000E-05 Eh   :
          :   grad. convergence          0.1000000E-02 Eh/α :
          :   maxmium RF displ.          1.0000000          :
          :   Hlow (freq-cutoff)         0.1000000E-01      :
          :   Hmax (freq-cutoff)         5.0000000          :
          :   S6 in model hess.         20.0000000          :
          ...................................................

generating ANC from model Hessian ...
Using Lindh-Hessian (1995)
 Shifting diagonal of input Hessian by    0.0000000000000000     
 Lowest  eigenvalues of input Hessian
    0.000000    0.000000    0.000000    0.000000    0.000000    0.000000
    0.300538    1.240729    1.410864
 Highest eigenvalues
    0.000000    0.000000    0.000000    0.300538    1.240729    1.410864


........................................................................
.............................. CYCLE    1 ..............................
........................................................................

 iter      E             dE          RMSdq      gap      omega  full diag
   1     -5.1054494 -0.510545E+01  0.398E-09   14.65       0.0  T
   2     -5.1054494  0.177636E-14  0.239E-09   14.65  100000.0  T
   3     -5.1054494 -0.266454E-14  0.615E-10   14.65  100000.0  T
     SCC iter.                  ...        0 min,  0.000 sec
     gradient                   ...        0 min,  0.000 sec
 * total energy  :    -5.0703698 Eh     change       -0.4440892E-13 Eh
   gradient norm :     0.0073281 Eh/α   predicted     0.0000000E+00 (-100.00%)
   displ. norm   :     0.0243609 α      lambda       -0.1784812E-03
   maximum displ.:     0.0243604 α      in ANC's #1, #2, #3, ...

........................................................................
.............................. CYCLE    2 ..............................
........................................................................

 iter      E             dE          RMSdq      gap      omega  full diag
   1     -5.1047084 -0.510471E+01  0.474E-02   14.46       0.0  T
   2     -5.1047085 -0.100356E-06  0.275E-02   14.46       2.1  T
   3     -5.1047085 -0.141578E-07  0.269E-03   14.46      21.5  T
   4     -5.1047085 -0.334810E-08  0.461E-04   14.46     125.2  T
   5     -5.1047085 -0.499423E-11  0.217E-05   14.46    2658.1  T
     SCC iter.                  ...        0 min,  0.000 sec
     gradient                   ...        0 min,  0.000 sec
 * total energy  :    -5.0704981 Eh     change       -0.1282731E-03 Eh
   gradient norm :     0.0041606 Eh/α   predicted    -0.8929457E-04 ( -30.39%)
   displ. norm   :     0.0218983 α      lambda       -0.7934988E-04
   maximum displ.:     0.0215737 α      in ANC's #1, #2, #1, ...

........................................................................
.............................. CYCLE    3 ..............................
........................................................................

 iter      E             dE          RMSdq      gap      omega  full diag
   1     -5.1045544 -0.510455E+01  0.463E-02   14.36       0.0  T
   2     -5.1045548 -0.332113E-06  0.257E-02   14.36       2.2  T
   3     -5.1045548 -0.457775E-07  0.539E-03   14.35      10.7  T
   4     -5.1045548 -0.678969E-08  0.753E-04   14.35      76.7  T
   5     -5.1045548 -0.230402E-10  0.273E-05   14.35    2114.2  T
     SCC iter.                  ...        0 min,  0.000 sec
     gradient                   ...        0 min,  0.000 sec
 * total energy  :    -5.0705416 Eh     change       -0.4349954E-04 Eh
   gradient norm :     0.0020266 Eh/α   predicted    -0.3969364E-04 (  -8.75%)
   displ. norm   :     0.0028089 α      lambda       -0.3951019E-05
   maximum displ.:     0.0020274 α      in ANC's #1, #2, #3, ...

........................................................................
.............................. CYCLE    4 ..............................
........................................................................

 iter      E             dE          RMSdq      gap      omega  full diag
   1     -5.1047771 -0.510478E+01  0.103E-02   14.37       0.0  T
   2     -5.1047771 -0.297286E-07  0.541E-03   14.37      10.7  T
   3     -5.1047771 -0.462697E-08  0.155E-03   14.37      37.2  T
   4     -5.1047771 -0.443181E-09  0.239E-04   14.37     241.7  T
   5     -5.1047771 -0.102496E-11  0.490E-06   14.37   11786.0  T
     SCC iter.                  ...        0 min,  0.000 sec
     gradient                   ...        0 min,  0.000 sec
 * total energy  :    -5.0705441 Eh     change       -0.2542690E-05 Eh
   gradient norm :     0.0007165 Eh/α   predicted    -0.1974208E-05 ( -22.36%)
   displ. norm   :     0.0012950 α      lambda       -0.6132898E-06
   maximum displ.:     0.0012949 α      in ANC's #2, #1, #3, ...

   *** GEOMETRY OPTIMIZATION CONVERGED AFTER 4 ITERATIONS ***

------------------------------------------------------------------------
 total energy gain   :        -0.0001743 Eh       -0.1094 kcal/mol
 total RMSD          :         0.0278751 a0        0.0148 Å
 total power (kW/mol):        -0.1144162 (step) -350.8874 (real)
------------------------------------------------------------------------

 ANCopt (total)                0 d,  0 h,  0 min,  0.001 sec
 optimizer setup                ...        0 min,  0.000 sec (  4.213%)
 model hessian                  ...        0 min,  0.000 sec (  1.260%)
 ANC generation                 ...        0 min,  0.000 sec (  2.413%)
 coordinate transformation      ...        0 min,  0.000 sec (  0.348%)
 single point calculation       ...        0 min,  0.001 sec ( 70.693%)
 optimization log               ...        0 min,  0.000 sec (  7.505%)
 hessian update                 ...        0 min,  0.000 sec (  0.342%)
 rational function              ...        0 min,  0.000 sec (  5.532%)

================
 final structure:
================
3
 xtb: 6.6.1 (unknown)
O            0.00000000000000        0.00000000022983        0.01098113547780
H            0.00000000000000       -0.77236042365501        0.58050943235006
H            0.00000000000000        0.77236042342518        0.58050943217215

 Bond Distances (Angstroems)
 ---------------------------
O1-H2=0.9596         O1-H3=0.9596         H2-O1=0.9596         H3-O1=0.9596         
 O  H  Rav=0.9596 sigma=0.0000  Rmin=0.9596  Rmax=0.9596     2

 selected bond angles (degree)
 --------------------
H3-O1-H2=107.19                

 selected dihedral angles (degree)
 ---------------------------------

           -------------------------------------------------
          |                Final Singlepoint                |
           -------------------------------------------------

          ...................................................
          :                      SETUP                      :
          :.................................................:
          :  # basis functions                   6          :
          :  # atomic orbitals                   6          :
          :  # shells                            4          :
          :  # electrons                         8          :
          :  max. iterations                   250          :
          :  Hamiltonian                  GFN2-xTB          :
          :  restarted?                      false          :
          :  GBSA solvation                  false          :
          :  PC potential                    false          :
          :  electronic temp.          300.0000000     K    :
          :  accuracy                    1.0000000          :
          :  -> integral cutoff          0.2500000E+02      :
          :  -> integral neglect         0.1000000E-07      :
          :  -> SCF convergence          0.1000000E-05 Eh   :
          :  -> wf. convergence          0.1000000E-03 e    :
          :  Broyden damping             0.4000000          :
          ...................................................

 iter      E             dE          RMSdq      gap      omega  full diag
   1     -5.1047771 -0.510478E+01  0.238E-06   14.37       0.0  T
   2     -5.1047771 -0.621725E-14  0.143E-06   14.37   40385.2  T
   3     -5.1047771  0.888178E-15  0.539E-08   14.37  100000.0  T

   *** convergence criteria satisfied after 3 iterations ***

         #    Occupation            Energy/Eh            Energy/eV
      -------------------------------------------------------------
         1        2.0000           -0.6800370             -18.5047
         2        2.0000           -0.5682435             -15.4627
         3        2.0000           -0.5109064             -13.9025
         4        2.0000           -0.4463773             -12.1465 (HOMO)
         5                          0.0818220               2.2265 (LUMO)
         6                          0.2505116               6.8168
      -------------------------------------------------------------
                  HL-Gap            0.5281994 Eh           14.3730 eV
             Fermi-level           -0.1822777 Eh           -4.9600 eV

 SCC (total)                   0 d,  0 h,  0 min,  0.000 sec
 SCC setup                      ...        0 min,  0.000 sec ( 15.081%)
 Dispersion                     ...        0 min,  0.000 sec (  1.755%)
 classical contributions        ...        0 min,  0.000 sec (  0.880%)
 integral evaluation            ...        0 min,  0.000 sec ( 15.921%)
 iterations                     ...        0 min,  0.000 sec ( 30.545%)
 molecular gradient             ...        0 min,  0.000 sec ( 21.070%)
 printout                       ...        0 min,  0.000 sec ( 13.162%)

         :::::::::::::::::::::::::::::::::::::::::::::::::::::
         ::                     SUMMARY                     ::
         :::::::::::::::::::::::::::::::::::::::::::::::::::::
         :: total energy              -5.070544134495 Eh    ::
         :: gradient norm              0.000716541112 Eh/a0 ::
         :: HOMO-LUMO gap             14.373036853904 eV    ::
         ::.................................................::
         :: SCC energy                -5.104777144099 Eh    ::
         :: -> isotropic ES            0.031458145532 Eh    ::
         :: -> anisotropic ES          0.000400854390 Eh    ::
         :: -> anisotropic XC         -0.000875770776 Eh    ::
         :: -> dispersion             -0.000141096348 Eh    ::
         :: repulsion energy           0.034233009578 Eh    ::
         :: add. restraining           0.000000000000 Eh    ::
         :: total charge              -0.000000000000 e     ::
         :::::::::::::::::::::::::::::::::::::::::::::::::::::

           -------------------------------------------------
          |                Property Printout                |
           -------------------------------------------------

    * Orbital Energies and Occupations

         #    Occupation            Energy/Eh            Energy/eV
      -------------------------------------------------------------
         1        2.0000           -0.6800370             -18.5047
         2        2.0000           -0.5682435             -15.4627
         3        2.0000           -0.5109064             -13.9025
         4        2.0000           -0.4463773             -12.1465 (HOMO)
         5                          0.0818220               2.2265 (LUMO)
         6                          0.2505116               6.8168
      -------------------------------------------------------------
                  HL-Gap            0.5281994 Eh           14.3730 eV
             Fermi-level           -0.1822777 Eh           -4.9600 eV

     #   Z          covCN         q      C6AA      α(0)
     1   8 O        1.611    -0.565    24.355     6.661
     2   1 H        0.805     0.282     0.777     1.384
     3   1 H        0.805     0.282     0.777     1.384

 Mol. C6AA /au·bohr⁶  :         44.534760
 Mol. C8AA /au·bohr⁸  :        795.715215
 Mol. α(0) /au        :          9.429126


Wiberg/Mayer (AO) data.
largest (>0.10) Wiberg bond orders for each atom

 ---------------------------------------------------------------------------
     #   Z sym  total        # sym  WBO       # sym  WBO       # sym  WBO
 ---------------------------------------------------------------------------
     1   8 O    1.840 --     2 H    0.920     3 H    0.920
     2   1 H    0.920 --     1 O    0.920
     3   1 H    0.920 --     1 O    0.920
 ---------------------------------------------------------------------------

Topologies differ in total number of bonds
Writing topology from bond orders to xtbtopo.mol

molecular dipole:
                 x           y           z       tot (Debye)
 q only:        0.000      -0.000       0.608
   full:       -0.000      -0.000       0.873       2.218
molecular quadrupole (traceless):
                xx          xy          yy          xz          yz          zz
 q only:       -0.941       0.000       0.863       0.000      -0.000       0.078
  q+dip:       -1.216       0.000       1.104      -0.000      -0.000       0.112
   full:       -1.475       0.000       1.308      -0.000      -0.000       0.167

           -------------------------------------------------
          |                Geometry Summary                 |
           -------------------------------------------------

      molecular mass/u    :       18.0152864
   center of mass at/Å    :        0.0000000       0.0000000       0.0747104
  moments of inertia/u·Å² :        0.5807087E+00   0.1202555E+01   0.1783264E+01
rotational constants/cm⁻¹ :        0.2902941E+02   0.1401817E+02   0.9453245E+01

 * 2 selected distances

     #   Z          #   Z                                           value/Å
     1   8 O        2   1 H                                       0.9596371 (max)
     1   8 O        3   1 H                                       0.9596371 (min)

 * 1 distinct bonds (by element types)

   Z      Z             #   av. dist./Å        max./Å        min./Å
   1 H    8 O           2     0.9596371     0.9596371     0.9596371


optimized geometry written to: xtbopt.xyz


           -------------------------------------------------
          | TOTAL ENERGY               -5.070544134495 Eh   |
          | GRADIENT NORM               0.000716541112 Eh/α |
          | HOMO-LUMO GAP              14.373036853904 eV   |
           -------------------------------------------------

------------------------------------------------------------------------
 * finished run on 2025/11/15 at 13:46:44.698     
------------------------------------------------------------------------
 total:
 * wall-time:     0 d,  0 h,  0 min,  0.006 sec
 *  cpu-time:     0 d,  0 h,  0 min,  0.006 sec
 * ratio c/w:     1.000 speedup
 SCF:
 * wall-time:     0 d,  0 h,  0 min,  0.001 sec
 *  cpu-time:     0 d,  0 h,  0 min,  0.001 sec
 * ratio c/w:     1.000 speedup
 ANC optimizer:
 * wall-time:     0 d,  0 h,  0 min,  0.002 sec
 *  cpu-time:     0 d,  0 h,  0 min,  0.002 sec
 * ratio c/w:     1.000 speedup

