3
 energy: -5.070544134495 gnorm: 0.000716541112 xtb: 6.6.1 (unknown)
O            0.00000000000000        0.00000000022983        0.01098113547780
H            0.00000000000000       -0.77236042365501        0.58050943235006
H            0.00000000000000        0.77236042342518        0.58050943217215
