3
 energy: -5.070369819160 gnorm: 0.007328082870 xtb: 6.6.1 (unknown)
O            0.00000000000000        0.00000000000000        0.00000000000000
H            0.00000000000000       -0.75700000000000        0.58600000000000
H            0.00000000000000        0.75700000000000        0.58600000000000
3
 energy: -5.070498092264 gnorm: 0.004160556395 xtb: 6.6.1 (unknown)
O            0.00000000000000        0.00000000073497        0.00441542662128
H            0.00000000000000       -0.76527464245882        0.58379228697383
H            0.00000000000000        0.76527464172385        0.58379228640489
3
 energy: -5.070541591804 gnorm: 0.002026595061 xtb: 6.6.1 (unknown)
O            0.00000000000000        0.00000000073497        0.00984835378622
H            0.00000000000000       -0.77198315587735        0.58107582339136
H            0.00000000000000        0.77198315514238        0.58107582282242
3
 energy: -5.070544134495 gnorm: 0.000716530037 xtb: 6.6.1 (unknown)
O            0.00000000000000        0.00000000022983        0.01098113547780
H            0.00000000000000       -0.77236042365501        0.58050943235006
H            0.00000000000000        0.77236042342518        0.58050943217215
