      -----------------------------------------------------------      
     |                   =====================                   |     
     |                           x T B                           |     
     |                   =====================                   |     
     |                         S. Grimme                         |     
     |          Mulliken Center for Theoretical Chemistry        |     
     |                    University of Bonn                     |     
      -----------------------------------------------------------      

   * xtb version 6.6.1 (unknown) compiled by 'builduser@buildhost' on 2023-08-07

   xtb is free software: you can redistribute it and/or modify it under
   the terms of the GNU Lesser General Public License as published by
   the Free Software Foundation, either version 3 of the License, or
   (at your option) any later version.
   
   xtb is distributed in the hope that it will be useful,
   but WITHOUT ANY WARRANTY; without even the implied warranty of
   MERCHANTABILITY or FITNESS FOR A PARTICULAR PURPOSE.  See the
   GNU Lesser General Public License for more details.
   
   Cite this work as:
   * C. Bannwarth, E. Caldeweyher, S. Ehlert, A. Hansen, P. Pracht,
     J. Seibert, S. Spicher, S. Grimme, WIREs Comput. Mol. Sci., 2020, 11,
     e01493. DOI: 10.1002/wcms.1493
   
   for GFN2-xTB:
   * C. Bannwarth, S. Ehlert and S. Grimme., J. Chem. Theory Comput., 2019,
     15, 1652-1671. DOI: 10.1021/acs.jctc.8b01176
   for GFN1-xTB:
   * S. Grimme, C. Bannwarth, P. Shushkov, J. Chem. Theory Comput., 2017,
     13, 1989-2009. DOI: 10.1021/acs.jctc.7b00118
   for GFN0-xTB:
   * P. Pracht, E. Caldeweyher, S. Ehlert, S. Grimme, ChemRxiv, 2019, preprint.
     DOI: 10.26434/chemrxiv.8326202.v1
   for GFN-FF:
   * S. Spicher and S. Grimme, Angew. Chem. Int. Ed., 2020, 59, 15665-15673.
     DOI: 10.1002/anie.202004239
   
   for ALPB and GBSA implicit solvation:
   * S. Ehlert, M. Stahn, S. Spicher, S. Grimme, J. Chem. Theory Comput.,
     2021, 17, 4250-4261. DOI: 10.1021/acs.jctc.1c00471
   
   for DFT-D4:
   * E. Caldeweyher, C. Bannwarth and S. Grimme, J. Chem. Phys., 2017,
     147, 034112. DOI: 10.1063/1.4993215
   * E. Caldeweyher, S. Ehlert, A. Hansen, H. Neugebauer, S. Spicher,
     C. Bannwarth and S. Grimme, J. Chem. Phys., 2019, 150, 154122.
     DOI: 10.1063/1.5090222
   * E. Caldeweyher, J.-M. Mewes, S. Ehlert and S. Grimme, Phys. Chem. Chem. Phys.
     2020, 22, 8499-8512. DOI: 10.1039/D0CP00502A
   
   for sTDA-xTB:
   * S. Grimme and C. Bannwarth, J. Chem. Phys., 2016, 145, 054103.
     DOI: 10.1063/1.4959605
   
   in the mass-spec context:
   * V. Asgeirsson, C. Bauer and S. Grimme, Chem. Sci., 2017, 8, 4879.
     DOI: 10.1039/c7sc00601b
   * J. Koopman and S. Grimme, ACS Omega 2019, 4, 12, 15120-15133.
     DOI: 10.1021/acsomega.9b02011
   
   for metadynamics refer to:
   * S. Grimme, J. Chem. Theory Comput., 2019, 155, 2847-2862
     DOI: 10.1021/acs.jctc.9b00143
   
   for SPH calculations refer to:
   * S. Spicher and S. Grimme, J. Chem. Theory Comput., 2021, 17, 1701-1714
     DOI: 10.1021/acs.jctc.0c01306
   
   with help from (in alphabetical order)
   P. Atkinson, C. Bannwarth, F. Bohle, G. Brandenburg, E. Caldeweyher
   M. Checinski, S. Dohm, S. Ehlert, S. Ehrlich, I. Gerasimov, C. Hölzer
   A. Katbashev, J. Koopman, C. Lavigne, S. Lehtola, F. März, M. Müller,
   F. Musil, H. Neugebauer, J. Pisarek, C. Plett, P. Pracht, F. Pultar,
   J. Seibert, P. Shushkov, S. Spicher, M. Stahn, M. Steiner, T. Strunk,
   J. Stückrath, T. Rose, and J. Unsleber
   
 * started run on 2025/11/16 at 10:44:22.181     

           -------------------------------------------------
          |                Calculation Setup                |
           -------------------------------------------------

          program call               : /usr/bin/xtb /app/jobs/manualcaffeinetest_20251116_104422_a71dc4d8/manualcaffeinetest.xyz --opt normal --json
          hostname                   : 32eae8144d8a
          coordinate file            : /app/jobs/manualcaffeinetest_20251116_104422_a71dc4d8/manualcaffeinetest.xyz
          omp threads                :                     1

   ID    Z sym.   atoms
    1    6 C      1, 2, 4, 6, 8, 10-12, 14
    2    7 N      3, 5, 7, 9, 13, 17, 20
    3    8 O      15, 16, 18, 19, 21
    4    1 H      22-24

           -------------------------------------------------
          |                 G F N 2 - x T B                 |
           -------------------------------------------------

        Reference                      10.1021/acs.jctc.8b01176
      * Hamiltonian:
        H0-scaling (s, p, d)           1.850000    2.230000    2.230000
        zeta-weighting                 0.500000
      * Dispersion:
        s8                             2.700000
        a1                             0.520000
        a2                             5.000000
        s9                             5.000000
      * Repulsion:
        kExp                           1.500000    1.000000
        rExp                           1.000000
      * Coulomb:
        alpha                          2.000000
        third order                    shell-resolved
        anisotropic                    true
        a3                             3.000000
        a5                             4.000000
        cn-shift                       1.200000
        cn-exp                         4.000000
        max-rad                        5.000000


          ...................................................
          :                      SETUP                      :
          :.................................................:
          :  # basis functions                  87          :
          :  # atomic orbitals                  87          :
          :  # shells                           45          :
          :  # electrons                       104          :
          :  max. iterations                   250          :
          :  Hamiltonian                  GFN2-xTB          :
          :  restarted?                      false          :
          :  GBSA solvation                  false          :
          :  PC potential                    false          :
          :  electronic temp.          300.0000000     K    :
          :  accuracy                    1.0000000          :
          :  -> integral cutoff          0.2500000E+02      :
          :  -> integral neglect         0.1000000E-07      :
          :  -> SCF convergence          0.1000000E-05 Eh   :
          :  -> wf. convergence          0.1000000E-03 e    :
          :  Broyden damping             0.4000000          :
          ...................................................

 iter      E             dE          RMSdq      gap      omega  full diag
   1    -57.2843076 -0.572843E+02  0.123E+01    0.57       0.0  T
   2    -57.3617229 -0.774153E-01  0.949E+00    0.78       1.0  T
   3    -57.6814371 -0.319714E+00  0.788E+00    0.68       1.0  T
   4    -58.7879624 -0.110653E+01  0.563E+00    0.42       1.0  T
   5    -59.1971169 -0.409155E+00  0.447E+00    0.52       1.0  T
   6    -59.3686736 -0.171557E+00  0.281E+00    0.55       1.0  T
   7    -59.3956888 -0.270152E-01  0.182E+00    0.27       1.0  T
   8    -59.3397966  0.558922E-01  0.208E+00    0.04       1.0  T
   9    -59.4158053 -0.760087E-01  0.139E+00    0.30       1.0  T
  10    -59.4484662 -0.326609E-01  0.698E-01    0.12       1.0  T
  11    -59.4570633 -0.859702E-02  0.289E-01    0.08       1.0  T
  12    -59.4569523  0.110952E-03  0.256E-01    0.08       1.0  T
  13    -59.4576509 -0.698620E-03  0.201E-01    0.05       1.0  T
  14    -59.4585532 -0.902282E-03  0.539E-02    0.07       1.0  T
  15    -59.4586139 -0.607111E-04  0.149E-02    0.07       1.4  T
  16    -59.4586189 -0.494211E-05  0.393E-03    0.07       5.2  T
  17    -59.4586182  0.684640E-06  0.676E-03    0.07       3.0  T
  18    -59.4586193 -0.107700E-05  0.507E-04    0.07      40.3  T
  19    -59.4586193 -0.252136E-08  0.424E-04    0.07      48.2  T
  20    -59.4586193 -0.438691E-08  0.419E-05    0.07     487.5  T

   *** convergence criteria satisfied after 20 iterations ***

         #    Occupation            Energy/Eh            Energy/eV
      -------------------------------------------------------------
         1        2.0000           -1.0360866             -28.1934
       ...           ...                  ...                  ...
        46        2.0000           -0.2607649              -7.0958
        47        2.0000           -0.2203543              -5.9961
        48        2.0000           -0.1986350              -5.4051
        49        2.0000           -0.1772080              -4.8221
        50        2.0000           -0.1663836              -4.5275
        51        2.0000           -0.1499661              -4.0808
        52        1.5604           -0.1342119              -3.6521 (HOMO)
        53        0.4396           -0.1318050              -3.5866 (LUMO)
        54                         -0.0867825              -2.3615
        55                         -0.0848368              -2.3085
        56                         -0.0434538              -1.1824
        57                         -0.0292516              -0.7960
       ...                                ...                  ...
        87                         15.8869302             432.3054
      -------------------------------------------------------------
                  HL-Gap            0.0024069 Eh            0.0655 eV
             Fermi-level           -0.1330085 Eh           -3.6193 eV

 SCC (total)                   0 d,  0 h,  0 min,  0.031 sec
 SCC setup                      ...        0 min,  0.000 sec (  0.599%)
 Dispersion                     ...        0 min,  0.000 sec (  0.646%)
 classical contributions        ...        0 min,  0.000 sec (  0.178%)
 integral evaluation            ...        0 min,  0.004 sec ( 12.488%)
 iterations                     ...        0 min,  0.018 sec ( 58.880%)
 molecular gradient             ...        0 min,  0.008 sec ( 26.827%)
 printout                       ...        0 min,  0.000 sec (  0.356%)

         :::::::::::::::::::::::::::::::::::::::::::::::::::::
         ::                     SUMMARY                     ::
         :::::::::::::::::::::::::::::::::::::::::::::::::::::
         :: total energy             -46.893692878184 Eh    ::
         :: gradient norm             24.265987506659 Eh/a0 ::
         :: HOMO-LUMO gap              0.065494018618 eV    ::
         ::.................................................::
         :: SCC energy               -59.458619260977 Eh    ::
         :: -> isotropic ES            0.419449251037 Eh    ::
         :: -> anisotropic ES          0.092327003116 Eh    ::
         :: -> anisotropic XC          0.019167200145 Eh    ::
         :: -> dispersion             -0.032638617627 Eh    ::
         :: repulsion energy          12.564735744911 Eh    ::
         :: add. restraining           0.000000000000 Eh    ::
         :: total charge               0.000000000000 e     ::
         :::::::::::::::::::::::::::::::::::::::::::::::::::::

      ----------------------------------------------------------- 
     |                   =====================                   |
     |                        A N C O P T                        |
     |                   =====================                   |
     |               Approximate Normal Coordinate               |
     |                Rational Function Optimizer                |
      ----------------------------------------------------------- 

          ...................................................
          :                      SETUP                      :
          :.................................................:
          :   optimization level            normal          :
          :   max. optcycles                   200          :
          :   ANC micro-cycles                  20          :
          :   degrees of freedom                66          :
          :.................................................:
          :   RF solver                   davidson          :
          :   write xtbopt.log                true          :
          :   linear?                        false          :
          :   energy convergence         0.5000000E-05 Eh   :
          :   grad. convergence          0.1000000E-02 Eh/α :
          :   maxmium RF displ.          1.0000000          :
          :   Hlow (freq-cutoff)         0.1000000E-01      :
          :   Hmax (freq-cutoff)         5.0000000          :
          :   S6 in model hess.         20.0000000          :
          ...................................................

generating ANC from model Hessian ...
Using Lindh-Hessian (1995)
 Shifting diagonal of input Hessian by    9.4070550082679394E-003
 Lowest  eigenvalues of input Hessian
    0.000000    0.000000    0.000000    0.000000    0.000000    0.000000
    0.010000    0.017197    0.022487    0.023076    0.025717    0.033883
    0.043984    0.045644    0.063501    0.066649    0.091205    0.130008
 Highest eigenvalues
    7.350078    9.188062   30.786300   30.802453   33.210390   33.222722


........................................................................
.............................. CYCLE    1 ..............................
........................................................................

 iter      E             dE          RMSdq      gap      omega  full diag
   1    -59.4586193 -0.594586E+02  0.463E-05    0.07       0.0  T
   2    -59.4586192  0.129085E-07  0.703E-04    0.07      29.0  T
   3    -59.4586193 -0.129375E-07  0.294E-05    0.07     693.3  T
     SCC iter.                  ...        0 min,  0.003 sec
     gradient                   ...        0 min,  0.008 sec
 * total energy  :   -46.8936929 Eh     change       -0.1857359E-10 Eh
   gradient norm :    24.2659874 Eh/α   predicted     0.0000000E+00 (-100.00%)
   displ. norm   :     0.9234142 α      lambda       -0.2225880E+02
   maximum displ.:     0.6764851 α      in ANC's #51, #56, #49, ...

........................................................................
.............................. CYCLE    2 ..............................
........................................................................

 iter      E             dE          RMSdq      gap      omega  full diag
   1    -58.9361232 -0.589361E+02  0.565E+00    0.06       0.0  T
   2    -57.3006204  0.163550E+01  0.791E+00    0.01       1.0  T
   3    -58.1227547 -0.822134E+00  0.659E+00    0.51       1.0  T
   4    -58.8967376 -0.773983E+00  0.472E+00    0.42       1.0  T
   5    -59.1838353 -0.287098E+00  0.457E+00    0.19       1.0  T
   6    -59.8089291 -0.625094E+00  0.221E+00    0.65       1.0  T
   7    -59.8357312 -0.268021E-01  0.171E+00    0.45       1.0  T
   8    -59.8417140 -0.598283E-02  0.133E+00    0.36       1.0  T
   9    -59.8372903  0.442373E-02  0.838E-01    0.05       1.0  T
  10    -59.8583748 -0.210845E-01  0.158E-01    0.10       1.0  T
  11    -59.8590319 -0.657153E-03  0.121E-01    0.11       1.0  T
  12    -59.8589456  0.863848E-04  0.949E-02    0.10       1.0  T
  13    -59.8591696 -0.224019E-03  0.419E-02    0.11       1.0  T
  14    -59.8591829 -0.133639E-04  0.281E-02    0.11       1.0  T
  15    -59.8591859 -0.294001E-05  0.228E-02    0.11       1.0  T
  16    -59.8591963 -0.104155E-04  0.134E-02    0.11       1.5  T
  17    -59.8592006 -0.432894E-05  0.728E-03    0.11       2.8  T
  18    -59.8592016 -0.939746E-06  0.365E-03    0.11       5.6  T
  19    -59.8592018 -0.201302E-06  0.274E-03    0.11       7.5  T
  20    -59.8592019 -0.170501E-06  0.101E-03    0.11      20.3  T
  21    -59.8592020 -0.260127E-07  0.190E-04    0.11     107.4  T
  22    -59.8592020  0.623764E-09  0.250E-04    0.11      81.8  T
     SCC iter.                  ...        0 min,  0.019 sec
     gradient                   ...        0 min,  0.008 sec
 * total energy  :   -54.8523203 Eh     change       -0.7958627E+01 Eh
   gradient norm :    11.4757451 Eh/α   predicted    -0.2074267E+02 ( 160.63%)
   displ. norm   :     0.8361590 α      lambda       -0.9202917E+01
   maximum displ.:     0.6245246 α      in ANC's #61, #51, #31, ...

........................................................................
.............................. CYCLE    3 ..............................
........................................................................

 iter      E             dE          RMSdq      gap      omega  full diag
   1    -59.3522870 -0.593523E+02  0.726E+00    0.26       0.0  T
   2    -58.0633126  0.128897E+01  0.821E+00    1.44       1.0  T
   3    -59.0191502 -0.955838E+00  0.603E+00    0.97       1.0  T
   4    -59.7919388 -0.772789E+00  0.416E+00    0.08       1.0  T
   5    -60.4514507 -0.659512E+00  0.252E+00    0.31       1.0  T
   6    -60.4840193 -0.325685E-01  0.182E+00    0.10       1.0  T
   7    -60.4806325  0.338677E-02  0.149E+00    0.08       1.0  T
   8    -60.3257353  0.154897E+00  0.254E+00    0.14       1.0  T
   9    -60.4030884 -0.773531E-01  0.194E+00    0.09       1.0  T
  10    -60.4652919 -0.622034E-01  0.107E+00    0.01       1.0  T
  11    -60.4521542  0.131377E-01  0.137E+00    0.06       1.0  T
  12    -60.5025549 -0.504007E-01  0.362E-01    0.03       1.0  T
  13    -60.4938469  0.870800E-02  0.624E-01    0.01       1.0  T
  14    -60.5034408 -0.959381E-02  0.276E-01    0.01       1.0  T
  15    -60.5063562 -0.291545E-02  0.118E-01    0.02       1.0  T
  16    -60.5058880  0.468253E-03  0.152E-01    0.02       1.0  T
  17    -60.5060641 -0.176152E-03  0.135E-01    0.02       1.0  T
  18    -60.5067050 -0.640929E-03  0.446E-02    0.02       1.0  T
  19    -60.5067569 -0.518693E-04  0.199E-02    0.02       1.0  T
  20    -60.5067702 -0.132979E-04  0.392E-03    0.02       5.2  T
  21    -60.5067691  0.110836E-05  0.615E-03    0.02       3.3  T
  22    -60.5067703 -0.119803E-05  0.269E-03    0.02       7.6  T
  23    -60.5067706 -0.265463E-06  0.687E-04    0.02      29.7  T
  24    -60.5067706 -0.746004E-08  0.433E-04    0.02      47.2  T
     SCC iter.                  ...        0 min,  0.021 sec
     gradient                   ...        0 min,  0.008 sec
 * total energy  :   -58.2535876 Eh     change       -0.3401267E+01 Eh
   gradient norm :     2.5692475 Eh/α   predicted    -0.7818648E+01 ( 129.87%)
   displ. norm   :     0.6356463 α      lambda       -0.1194293E+01
   maximum displ.:     0.2588986 α      in ANC's #31, #13, #35, ...

........................................................................
.............................. CYCLE    4 ..............................
........................................................................

 iter      E             dE          RMSdq      gap      omega  full diag
   1    -60.4840002 -0.604840E+02  0.365E+00    0.27       0.0  T
   2    -59.5155617  0.968438E+00  0.595E+00    0.08       1.0  T
   3    -60.5423274 -0.102677E+01  0.247E+00    0.04       1.0  T
   4    -60.1381310  0.404196E+00  0.373E+00    0.35       1.0  T
   5    -60.6759322 -0.537801E+00  0.190E+00    0.11       1.0  T
   6    -60.4108063  0.265126E+00  0.345E+00    0.23       1.0  T
   7    -60.7102894 -0.299483E+00  0.123E+00    0.07       1.0  T
   8    -60.7155817 -0.529230E-02  0.104E+00    0.01       1.0  T
   9    -60.7478437 -0.322620E-01  0.628E-01    0.02       1.0  T
  10    -60.7522112 -0.436750E-02  0.257E-01    0.01       1.0  T
  11    -60.7514083  0.802866E-03  0.342E-01    0.01       1.0  T
  12    -60.7535807 -0.217236E-02  0.174E-01    0.02       1.0  T
  13    -60.7539146 -0.333894E-03  0.134E-01    0.02       1.0  T
  14    -60.7542467 -0.332157E-03  0.714E-02    0.02       1.0  T
  15    -60.7543495 -0.102758E-03  0.459E-02    0.01       1.0  T
  16    -60.7543967 -0.472213E-04  0.169E-02    0.02       1.2  T
  17    -60.7544017 -0.501399E-05  0.702E-03    0.01       2.9  T
  18    -60.7544030 -0.133636E-05  0.202E-03    0.01      10.1  T
  19    -60.7544031 -0.630173E-07  0.120E-03    0.01      17.0  T
  20    -60.7544031 -0.192429E-07  0.328E-04    0.01      62.3  T
  21    -60.7544031 -0.259922E-08  0.211E-04    0.01      96.5  T
     SCC iter.                  ...        0 min,  0.019 sec
     gradient                   ...        0 min,  0.008 sec
 * total energy  :   -59.0941438 Eh     change       -0.8405562E+00 Eh
   gradient norm :     1.6895962 Eh/α   predicted    -0.8384222E+00 (  -0.25%)
   displ. norm   :     0.5842248 α      lambda       -0.5805144E+00
   maximum displ.:     0.3496509 α      in ANC's #13, #26, #31, ...

........................................................................
.............................. CYCLE    5 ..............................
........................................................................

 iter      E             dE          RMSdq      gap      omega  full diag
   1    -60.7156830 -0.607157E+02  0.256E+00    0.27       0.0  T
   2    -59.2654355  0.145025E+01  0.657E+00    0.30       1.0  T
   3    -60.7358377 -0.147040E+01  0.288E+00    0.22       1.0  T
   4    -60.6548892  0.809485E-01  0.285E+00    0.12       1.0  T
   5    -60.8648261 -0.209937E+00  0.117E+00    0.00       1.0  T
   6    -60.6973193  0.167507E+00  0.239E+00    0.10       1.0  T
   7    -60.8485031 -0.151184E+00  0.112E+00    0.05       1.0  T
   8    -60.8896312 -0.411281E-01  0.730E-01    0.01       1.0  T
   9    -60.8967063 -0.707511E-02  0.477E-01    0.00       1.0  T
  10    -60.9013459 -0.463963E-02  0.159E-01    0.02       1.0  T
  11    -60.9014041 -0.581696E-04  0.201E-01    0.01       1.0  T
  12    -60.9017219 -0.317844E-03  0.129E-01    0.01       1.0  T
  13    -60.9019306 -0.208677E-03  0.637E-02    0.02       1.0  T
  14    -60.9020217 -0.910800E-04  0.265E-02    0.02       1.0  T
  15    -60.9020340 -0.123180E-04  0.138E-02    0.02       1.5  T
  16    -60.9020369 -0.295379E-05  0.450E-03    0.02       4.5  T
  17    -60.9020374 -0.481828E-06  0.296E-03    0.02       6.9  T
  18    -60.9020376 -0.152679E-06  0.860E-04    0.02      23.7  T
  19    -60.9020376 -0.143671E-07  0.458E-04    0.02      44.6  T
     SCC iter.                  ...        0 min,  0.017 sec
     gradient                   ...        0 min,  0.008 sec
 * total energy  :   -59.5713568 Eh     change       -0.4772130E+00 Eh
   gradient norm :     1.1676164 Eh/α   predicted    -0.3893273E+00 ( -18.42%)
   displ. norm   :     0.6857384 α      lambda       -0.4891140E+00
   maximum displ.:     0.4188863 α      in ANC's #13, #31, #26, ...

........................................................................
.............................. CYCLE    6 ..............................
........................................................................

 iter      E             dE          RMSdq      gap      omega  full diag
   1    -60.7896752 -0.607897E+02  0.278E+00    0.44       0.0  T
   2    -59.6667515  0.112292E+01  0.631E+00    0.42       1.0  T
   3    -60.1909933 -0.524242E+00  0.440E+00    0.10       1.0  T
   4    -60.5442225 -0.353229E+00  0.362E+00    0.11       1.0  T
   5    -60.8848943 -0.340672E+00  0.229E+00    0.08       1.0  T
   6    -60.9026309 -0.177366E-01  0.182E+00    0.05       1.0  T
   7    -60.9680190 -0.653881E-01  0.113E+00    0.00       1.0  T
   8    -60.9647176  0.330135E-02  0.133E+00    0.05       1.0  T
   9    -60.9952705 -0.305528E-01  0.109E+00    0.03       1.0  T
  10    -61.0051429 -0.987239E-02  0.853E-01    0.02       1.0  T
  11    -61.0047561  0.386795E-03  0.769E-01    0.01       1.0  T
  12    -61.0124004 -0.764432E-02  0.378E-01    0.01       1.0  T
  13    -61.0148787 -0.247830E-02  0.337E-01    0.00       1.0  T
  14    -61.0165045 -0.162578E-02  0.152E-01    0.01       1.0  T
  15    -61.0170724 -0.567894E-03  0.672E-02    0.02       1.0  T
  16    -61.0171549 -0.825503E-04  0.491E-02    0.02       1.0  T
  17    -61.0171927 -0.377817E-04  0.221E-02    0.02       1.0  T
  18    -61.0171954 -0.265966E-05  0.157E-02    0.02       1.3  T
  19    -61.0171981 -0.270375E-05  0.935E-03    0.02       2.2  T
  20    -61.0171993 -0.122816E-05  0.509E-03    0.02       4.0  T
  21    -61.0171996 -0.270657E-06  0.257E-03    0.02       8.0  T
  22    -61.0171997 -0.125218E-06  0.111E-03    0.02      18.4  T
  23    -61.0171997 -0.164449E-07  0.353E-04    0.02      57.8  T
  24    -61.0171997 -0.279864E-08  0.109E-04    0.02     186.9  T
     SCC iter.                  ...        0 min,  0.022 sec
     gradient                   ...        0 min,  0.008 sec
 * total energy  :   -59.9754498 Eh     change       -0.4040930E+00 Eh
   gradient norm :     0.7301895 Eh/α   predicted    -0.3595568E+00 ( -11.02%)
   displ. norm   :     0.7291361 α      lambda       -0.3679135E+00
   maximum displ.:     0.4368979 α      in ANC's #13, #16, #31, ...

........................................................................
.............................. CYCLE    7 ..............................
........................................................................

 iter      E             dE          RMSdq      gap      omega  full diag
   1    -60.9071407 -0.609071E+02  0.266E+00    0.29       0.0  T
   2    -60.0258003  0.881340E+00  0.590E+00    0.65       1.0  T
   3    -60.7874962 -0.761696E+00  0.345E+00    0.06       1.0  T
   4    -60.5004398  0.287056E+00  0.418E+00    0.29       1.0  T
   5    -60.9737950 -0.473355E+00  0.206E+00    0.02       1.0  T
   6    -61.0130333 -0.392383E-01  0.221E+00    0.09       1.0  T
   7    -61.0996830 -0.866496E-01  0.110E+00    0.07       1.0  T
   8    -61.0222112  0.774718E-01  0.187E+00    0.13       1.0  T
   9    -61.0998558 -0.776446E-01  0.116E+00    0.09       1.0  T
  10    -61.0880686  0.117872E-01  0.115E+00    0.09       1.0  T
  11    -61.1286021 -0.405335E-01  0.518E-01    0.04       1.0  T
  12    -61.1304603 -0.185817E-02  0.392E-01    0.03       1.0  T
  13    -61.1304855 -0.251804E-04  0.381E-01    0.02       1.0  T
  14    -61.1327973 -0.231180E-02  0.174E-01    0.03       1.0  T
  15    -61.1326322  0.165074E-03  0.177E-01    0.02       1.0  T
  16    -61.1333105 -0.678284E-03  0.922E-02    0.03       1.0  T
  17    -61.1335024 -0.191930E-03  0.376E-02    0.03       1.0  T
  18    -61.1335106 -0.818021E-05  0.326E-02    0.03       1.0  T
  19    -61.1335231 -0.125534E-04  0.245E-02    0.03       1.0  T
  20    -61.1335421 -0.189139E-04  0.276E-03    0.03       7.4  T
  21    -61.1335421 -0.394637E-07  0.205E-03    0.03      10.0  T
  22    -61.1335421  0.815781E-09  0.195E-03    0.03      10.5  T
  23    -61.1335422 -0.969646E-07  0.434E-04    0.03      47.0  T
  24    -61.1335422 -0.462619E-08  0.102E-04    0.03     200.7  T
     SCC iter.                  ...        0 min,  0.021 sec
     gradient                   ...        0 min,  0.008 sec
 * total energy  :   -60.2808022 Eh     change       -0.3053523E+00 Eh
   gradient norm :     0.4655136 Eh/α   predicted    -0.2817554E+00 (  -7.73%)
   displ. norm   :     0.7360207 α      lambda       -0.2620163E+00
   maximum displ.:     0.4440075 α      in ANC's #13, #16, #21, ...

........................................................................
.............................. CYCLE    8 ..............................
........................................................................

 iter      E             dE          RMSdq      gap      omega  full diag
   1    -61.1094106 -0.611094E+02  0.201E+00    0.09       0.0  T
   2    -60.4201835  0.689227E+00  0.506E+00    0.51       1.0  T
   3    -60.9385036 -0.518320E+00  0.331E+00    0.19       1.0  T
   4    -60.7609828  0.177521E+00  0.380E+00    0.28       1.0  T
   5    -61.0350659 -0.274083E+00  0.266E+00    0.09       1.0  T
   6    -61.0157302  0.193357E-01  0.271E+00    0.10       1.0  T
   7    -61.0438656 -0.281353E-01  0.224E+00    0.09       1.0  T
   8    -61.2001802 -0.156315E+00  0.153E+00    0.08       1.0  T
   9    -61.0519005  0.148280E+00  0.218E+00    0.14       1.0  T
  10    -61.1426484 -0.907480E-01  0.167E+00    0.11       1.0  T
  11    -61.2319201 -0.892717E-01  0.303E-01    0.01       1.0  T
  12    -61.2309605  0.959626E-03  0.329E-01    0.03       1.0  T
  13    -61.2294497  0.151085E-02  0.396E-01    0.01       1.0  T
  14    -61.2330657 -0.361603E-02  0.188E-01    0.02       1.0  T
  15    -61.2331423 -0.766508E-04  0.178E-01    0.02       1.0  T
  16    -61.2340039 -0.861537E-03  0.751E-02    0.02       1.0  T
  17    -61.2339853  0.185420E-04  0.999E-02    0.03       1.0  T
  18    -61.2341903 -0.204985E-03  0.180E-02    0.02       1.1  T
  19    -61.2341015  0.888077E-04  0.536E-02    0.02       1.0  T
  20    -61.2341932 -0.917389E-04  0.131E-02    0.02       1.6  T
  21    -61.2341945 -0.121280E-05  0.779E-03    0.02       2.6  T
  22    -61.2341953 -0.858371E-06  0.258E-03    0.02       7.9  T
  23    -61.2341954 -0.127484E-06  0.141E-03    0.02      14.4  T
  24    -61.2341955 -0.272560E-07  0.140E-03    0.02      14.6  T
  25    -61.2341955 -0.344159E-07  0.739E-04    0.02      27.6  T
  26    -61.2341955 -0.121100E-07  0.398E-04    0.02      51.3  T
     SCC iter.                  ...        0 min,  0.023 sec
     gradient                   ...        0 min,  0.008 sec
 * total energy  :   -60.4919802 Eh     change       -0.2111780E+00 Eh
   gradient norm :     0.3232653 Eh/α   predicted    -0.2019787E+00 (  -4.36%)
   displ. norm   :     0.7015674 α      lambda       -0.1708846E+00
   maximum displ.:     0.4465483 α      in ANC's #13, #21, #16, ...

........................................................................
.............................. CYCLE    9 ..............................
........................................................................

 iter      E             dE          RMSdq      gap      omega  full diag
   1    -61.2675173 -0.612675E+02  0.174E+00    0.04       0.0  T
   2    -60.8109097  0.456608E+00  0.344E+00    0.21       1.0  T
   3    -60.6980809  0.112829E+00  0.390E+00    0.41       1.0  T
   4    -61.1980577 -0.499977E+00  0.160E+00    0.00       1.0  T
   5    -61.1541616  0.438962E-01  0.233E+00    0.14       1.0  T
   6    -61.2738222 -0.119661E+00  0.122E+00    0.06       1.0  T
   7    -61.2355546  0.382676E-01  0.153E+00    0.08       1.0  T
   8    -61.2786255 -0.430709E-01  0.845E-01    0.04       1.0  T
   9    -61.2947266 -0.161010E-01  0.711E-01    0.01       1.0  T
  10    -61.2938534  0.873139E-03  0.716E-01    0.01       1.0  T
  11    -61.2955969 -0.174350E-02  0.546E-01    0.00       1.0  T
  12    -61.2964725 -0.875583E-03  0.289E-01    0.01       1.0  T
  13    -61.2961456  0.326866E-03  0.320E-01    0.02       1.0  T
  14    -61.2978073 -0.166166E-02  0.900E-02    0.01       1.0  T
  15    -61.2978733 -0.660163E-04  0.613E-02    0.01       1.0  T
  16    -61.2979194 -0.461459E-04  0.364E-02    0.01       1.0  T
  17    -61.2979414 -0.219654E-04  0.104E-02    0.01       2.0  T
  18    -61.2979425 -0.111145E-05  0.109E-02    0.01       1.9  T
  19    -61.2979429 -0.341910E-06  0.301E-03    0.01       6.8  T
  20    -61.2979431 -0.279457E-06  0.231E-03    0.01       8.9  T
  21    -61.2979432 -0.316341E-07  0.537E-04    0.01      38.0  T
  22    -61.2979432 -0.514440E-08  0.133E-04    0.01     153.8  T
     SCC iter.                  ...        0 min,  0.020 sec
     gradient                   ...        0 min,  0.009 sec
 * total energy  :   -60.6318404 Eh     change       -0.1398602E+00 Eh
   gradient norm :     0.2707020 Eh/α   predicted    -0.1274968E+00 (  -8.84%)
   displ. norm   :     0.6905502 α      lambda       -0.1272348E+00
   maximum displ.:     0.4129162 α      in ANC's #13, #21, #16, ...

........................................................................
.............................. CYCLE   10 ..............................
........................................................................

 iter      E             dE          RMSdq      gap      omega  full diag
   1    -61.3287723 -0.613288E+02  0.147E+00    0.05       0.0  T
   2    -61.0686771  0.260095E+00  0.325E+00    0.09       1.0  T
   3    -61.0902247 -0.215476E-01  0.281E+00    0.22       1.0  T
   4    -61.2379003 -0.147676E+00  0.177E+00    0.03       1.0  T
   5    -61.3461933 -0.108293E+00  0.694E-01    0.03       1.0  T
   6    -61.3361081  0.100852E-01  0.866E-01    0.05       1.0  T
   7    -61.3509357 -0.148276E-01  0.372E-01    0.03       1.0  T
   8    -61.3528121 -0.187636E-02  0.150E-01    0.02       1.0  T
   9    -61.3521179  0.694169E-03  0.210E-01    0.01       1.0  T
  10    -61.3531741 -0.105620E-02  0.568E-02    0.02       1.0  T
  11    -61.3531859 -0.117825E-04  0.599E-02    0.02       1.0  T
  12    -61.3532492 -0.632987E-04  0.153E-02    0.02       1.3  T
  13    -61.3532506 -0.147775E-05  0.120E-02    0.02       1.7  T
  14    -61.3532526 -0.198717E-05  0.119E-02    0.02       1.7  T
  15    -61.3532519  0.701587E-06  0.119E-02    0.02       1.7  T
  16    -61.3532546 -0.265156E-05  0.919E-04    0.02      22.2  T
  17    -61.3532545  0.989998E-07  0.255E-03    0.02       8.0  T
  18    -61.3532546 -0.888216E-07  0.107E-03    0.02      19.1  T
  19    -61.3532546 -0.167707E-07  0.464E-04    0.02      43.9  T
  20    -61.3532546 -0.426252E-08  0.540E-05    0.02     378.1  T
     SCC iter.                  ...        0 min,  0.019 sec
     gradient                   ...        0 min,  0.008 sec
 * total energy  :   -60.7350480 Eh     change       -0.1032076E+00 Eh
   gradient norm :     0.2366393 Eh/α   predicted    -0.9395395E-01 (  -8.97%)
   displ. norm   :     0.6433549 α      lambda       -0.9030760E-01
   maximum displ.:     0.3442337 α      in ANC's #13, #21, #17, ...

........................................................................
.............................. CYCLE   11 ..............................
........................................................................

 iter      E             dE          RMSdq      gap      omega  full diag
   1    -61.3534387 -0.613534E+02  0.155E+00    0.08       0.0  T
   2    -60.6110015  0.742437E+00  0.447E+00    0.53       1.0  T
   3    -61.2747756 -0.663774E+00  0.191E+00    0.14       1.0  T
   4    -61.1653356  0.109440E+00  0.296E+00    0.17       1.0  T
   5    -61.2403583 -0.750227E-01  0.234E+00    0.09       1.0  T
   6    -61.3907216 -0.150363E+00  0.610E-01    0.00       1.0  T
   7    -61.3345396  0.561821E-01  0.158E+00    0.11       1.0  T
   8    -61.4000145 -0.654750E-01  0.274E-01    0.03       1.0  T
   9    -61.3969189  0.309561E-02  0.421E-01    0.04       1.0  T
  10    -61.3995517 -0.263276E-02  0.253E-01    0.01       1.0  T
  11    -61.4013148 -0.176307E-02  0.553E-02    0.02       1.0  T
  12    -61.4014067 -0.919471E-04  0.201E-02    0.02       1.0  T
  13    -61.4010081  0.398604E-03  0.122E-01    0.02       1.0  T
  14    -61.4013971 -0.389046E-03  0.253E-02    0.02       1.0  T
  15    -61.4014135 -0.163826E-04  0.696E-04    0.02      29.3  T
  16    -61.4014129  0.582299E-06  0.469E-03    0.02       4.4  T
  17    -61.4014124  0.503639E-06  0.640E-03    0.02       3.2  T
  18    -61.4014135 -0.107592E-05  0.718E-04    0.02      28.4  T
  19    -61.4014135 -0.139342E-07  0.630E-05    0.02     324.1  T
  20    -61.4014135  0.786443E-09  0.186E-04    0.02     109.9  T
     SCC iter.                  ...        0 min,  0.019 sec
     gradient                   ...        0 min,  0.008 sec
 * total energy  :   -60.8033094 Eh     change       -0.6826140E-01 Eh
   gradient norm :     0.2031524 Eh/α   predicted    -0.6384340E-01 (  -6.47%)
   displ. norm   :     0.5214637 α      lambda       -0.5048406E-01
   maximum displ.:     0.2157332 α      in ANC's #13, #21, #11, ...

........................................................................
.............................. CYCLE   12 ..............................
........................................................................

 iter      E             dE          RMSdq      gap      omega  full diag
   1    -61.3872666 -0.613873E+02  0.142E+00    0.08       0.0  T
   2    -60.6239007  0.763366E+00  0.451E+00    0.77       1.0  T
   3    -61.3643923 -0.740492E+00  0.175E+00    0.04       1.0  T
   4    -61.4338038 -0.694115E-01  0.558E-01    0.04       1.0  T
   5    -61.4157748  0.180290E-01  0.936E-01    0.02       1.0  T
   6    -61.3689620  0.468129E-01  0.152E+00    0.11       1.0  T
   7    -61.4375380 -0.685761E-01  0.257E-01    0.01       1.0  T
   8    -61.4291719  0.836611E-02  0.612E-01    0.05       1.0  T
   9    -61.4358824 -0.671045E-02  0.375E-01    0.04       1.0  T
  10    -61.4398459 -0.396358E-02  0.379E-02    0.02       1.0  T
  11    -61.4392219  0.624048E-03  0.152E-01    0.01       1.0  T
  12    -61.4397878 -0.565878E-03  0.586E-02    0.02       1.0  T
  13    -61.4398746 -0.867878E-04  0.230E-02    0.02       1.0  T
  14    -61.4398874 -0.128189E-04  0.747E-03    0.02       2.7  T
  15    -61.4398889 -0.156186E-05  0.135E-03    0.02      15.1  T
  16    -61.4398889 -0.242095E-08  0.131E-03    0.02      15.6  T
  17    -61.4398890 -0.399680E-07  0.661E-04    0.02      30.9  T
  18    -61.4398890 -0.110601E-07  0.128E-04    0.02     159.7  T
     SCC iter.                  ...        0 min,  0.017 sec
     gradient                   ...        0 min,  0.008 sec
 * total energy  :   -60.8410658 Eh     change       -0.3775639E-01 Eh
   gradient norm :     0.1939038 Eh/α   predicted    -0.3210636E-01 ( -14.96%)
   displ. norm   :     0.4622924 α      lambda       -0.3487041E-01
   maximum displ.:     0.2334921 α      in ANC's #11, #3, #21, ...

........................................................................
.............................. CYCLE   13 ..............................
........................................................................

 iter      E             dE          RMSdq      gap      omega  full diag
   1    -61.4682400 -0.614682E+02  0.727E-01    0.01       0.0  T
   2    -61.3136514  0.154589E+00  0.230E+00    0.29       1.0  T
   3    -61.1580357  0.155616E+00  0.311E+00    0.25       1.0  T
   4    -61.4686619 -0.310626E+00  0.506E-01    0.00       1.0  T
   5    -61.4558434  0.128186E-01  0.850E-01    0.05       1.0  T
   6    -61.4369651  0.188782E-01  0.112E+00    0.07       1.0  T
   7    -61.4746159 -0.376508E-01  0.150E-01    0.01       1.0  T
   8    -61.4745346  0.812890E-04  0.164E-01    0.01       1.0  T
   9    -61.4735540  0.980655E-03  0.243E-01    0.01       1.0  T
  10    -61.4749468 -0.139288E-02  0.121E-01    0.01       1.0  T
  11    -61.4754049 -0.458093E-03  0.236E-02    0.02       1.0  T
  12    -61.4754185 -0.135490E-04  0.856E-03    0.02       2.4  T
  13    -61.4754185  0.388893E-08  0.913E-03    0.02       2.2  T
  14    -61.4754203 -0.179513E-05  0.479E-03    0.02       4.3  T
  15    -61.4754209 -0.646977E-06  0.154E-03    0.02      13.2  T
  16    -61.4754209 -0.195921E-07  0.128E-03    0.02      15.9  T
  17    -61.4754210 -0.296262E-07  0.823E-04    0.02      24.8  T
  18    -61.4754210 -0.202760E-07  0.155E-04    0.02     131.8  T
     SCC iter.                  ...        0 min,  0.017 sec
     gradient                   ...        0 min,  0.008 sec
 * total energy  :   -60.8684808 Eh     change       -0.2741501E-01 Eh
   gradient norm :     0.1922718 Eh/α   predicted    -0.2116137E-01 ( -22.81%)
   displ. norm   :     0.5005124 α      lambda       -0.3596160E-01
   maximum displ.:     0.2647781 α      in ANC's #11, #10, #14, ...

........................................................................
.............................. CYCLE   14 ..............................
........................................................................

 iter      E             dE          RMSdq      gap      omega  full diag
   1    -61.3861977 -0.613862E+02  0.219E+00    0.09       0.0  T
   2    -60.6554591  0.730739E+00  0.503E+00    0.92       1.0  T
   3    -61.2915292 -0.636070E+00  0.279E+00    0.40       1.0  T
   4    -61.4800206 -0.188491E+00  0.152E+00    0.05       1.0  T
   5    -61.4109531  0.690675E-01  0.188E+00    0.12       1.0  T
   6    -61.4109685 -0.153868E-04  0.181E+00    0.06       1.0  T
   7    -61.4115955 -0.627004E-03  0.184E+00    0.07       1.0  T
   8    -61.5136783 -0.102083E+00  0.454E-01    0.00       1.0  T
   9    -61.5184140 -0.473572E-02  0.274E-01    0.02       1.0  T
  10    -61.5207097 -0.229570E-02  0.401E-02    0.01       1.0  T
  11    -61.5175453  0.316441E-02  0.328E-01    0.00       1.0  T
  12    -61.5204031 -0.285778E-02  0.107E-01    0.01       1.0  T
  13    -61.5205169 -0.113771E-03  0.815E-02    0.02       1.0  T
  14    -61.5206432 -0.126267E-03  0.538E-02    0.02       1.0  T
  15    -61.5207371 -0.939767E-04  0.539E-03    0.01       3.8  T
  16    -61.5207372 -0.846756E-07  0.346E-03    0.01       5.9  T
  17    -61.5207371  0.160980E-06  0.396E-03    0.01       5.2  T
  18    -61.5207375 -0.398415E-06  0.856E-04    0.01      23.8  T
  19    -61.5207375 -0.140363E-07  0.201E-04    0.01     101.5  T
     SCC iter.                  ...        0 min,  0.018 sec
     gradient                   ...        0 min,  0.008 sec
 * total energy  :   -60.8979215 Eh     change       -0.2944067E-01 Eh
   gradient norm :     0.1964372 Eh/α   predicted    -0.2248523E-01 ( -23.63%)
   displ. norm   :     0.5568184 α      lambda       -0.4208124E-01
   maximum displ.:     0.2392065 α      in ANC's #11, #14, #10, ...

........................................................................
.............................. CYCLE   15 ..............................
........................................................................

 iter      E             dE          RMSdq      gap      omega  full diag
   1    -61.4075144 -0.614075E+02  0.245E+00    0.13       0.0  T
   2    -60.5681861  0.839328E+00  0.539E+00    1.09       1.0  T
   3    -61.3005675 -0.732381E+00  0.297E+00    0.27       1.0  T
   4    -61.4460572 -0.145490E+00  0.277E+00    0.11       1.0  T
   5    -61.5573445 -0.111287E+00  0.117E+00    0.03       1.0  T
   6    -61.3352866  0.222058E+00  0.254E+00    0.09       1.0  T
   7    -61.5397898 -0.204503E+00  0.130E+00    0.07       1.0  T
   8    -61.5335048  0.628492E-02  0.126E+00    0.04       1.0  T
   9    -61.5612836 -0.277788E-01  0.745E-01    0.02       1.0  T
  10    -61.5737935 -0.125099E-01  0.247E-01    0.00       1.0  T
  11    -61.5748093 -0.101582E-02  0.127E-01    0.01       1.0  T
  12    -61.5743421  0.467277E-03  0.168E-01    0.00       1.0  T
  13    -61.5750081 -0.666039E-03  0.805E-02    0.00       1.0  T
  14    -61.5752219 -0.213747E-03  0.423E-02    0.01       1.0  T
  15    -61.5752317 -0.986495E-05  0.187E-02    0.01       1.1  T
  16    -61.5752124  0.192906E-04  0.271E-02    0.01       1.0  T
  17    -61.5752258 -0.133227E-04  0.258E-02    0.01       1.0  T
  18    -61.5752387 -0.129489E-04  0.887E-03    0.01       2.3  T
  19    -61.5752404 -0.167574E-05  0.632E-03    0.01       3.2  T
  20    -61.5752409 -0.495405E-06  0.412E-03    0.01       5.0  T
  21    -61.5752414 -0.560855E-06  0.555E-04    0.01      36.8  T
  22    -61.5752414 -0.964983E-08  0.257E-04    0.01      79.3  T
     SCC iter.                  ...        0 min,  0.021 sec
     gradient                   ...        0 min,  0.008 sec
 * total energy  :   -60.9328618 Eh     change       -0.3494034E-01 Eh
   gradient norm :     0.2008354 Eh/α   predicted    -0.2756421E-01 ( -21.11%)
   displ. norm   :     0.5793154 α      lambda       -0.4588029E-01
   maximum displ.:     0.2643902 α      in ANC's #14, #10, #11, ...

........................................................................
.............................. CYCLE   16 ..............................
........................................................................

 iter      E             dE          RMSdq      gap      omega  full diag
   1    -61.5074868 -0.615075E+02  0.228E+00    0.13       0.0  T
   2    -60.6440077  0.863479E+00  0.523E+00    0.84       1.0  T
   3    -61.5405321 -0.896524E+00  0.281E+00    0.18       1.0  T
   4    -61.3602974  0.180235E+00  0.277E+00    0.17       1.0  T
   5    -61.5962326 -0.235935E+00  0.118E+00    0.01       1.0  T
   6    -61.5703559  0.258768E-01  0.137E+00    0.06       1.0  T
   7    -61.6298636 -0.595077E-01  0.782E-01    0.02       1.0  T
   8    -61.6224474  0.741615E-02  0.949E-01    0.04       1.0  T
   9    -61.6241612 -0.171373E-02  0.594E-01    0.01       1.0  T
  10    -61.6287968 -0.463563E-02  0.452E-01    0.01       1.0  T
  11    -61.6360581 -0.726130E-02  0.908E-02    0.00       1.0  T
  12    -61.6354932  0.564929E-03  0.181E-01    0.01       1.0  T
  13    -61.6359529 -0.459732E-03  0.965E-02    0.00       1.0  T
  14    -61.6363273 -0.374373E-03  0.123E-02    0.00       1.7  T
  15    -61.6363161  0.111775E-04  0.198E-02    0.00       1.0  T
  16    -61.6363150  0.106356E-05  0.212E-02    0.00       1.0  T
  17    -61.6363289 -0.138509E-04  0.431E-03    0.00       4.7  T
  18    -61.6363293 -0.431923E-06  0.289E-03    0.00       7.1  T
  19    -61.6363295 -0.224274E-06  0.117E-03    0.00      17.4  T
  20    -61.6363296 -0.464155E-07  0.171E-04    0.00     119.4  T
  21    -61.6363296  0.209621E-08  0.316E-04    0.00      64.6  T
     SCC iter.                  ...        0 min,  0.022 sec
     gradient                   ...        0 min,  0.008 sec
 * total energy  :   -60.9696017 Eh     change       -0.3673989E-01 Eh
   gradient norm :     0.1973494 Eh/α   predicted    -0.3063902E-01 ( -16.61%)
   displ. norm   :     0.5313069 α      lambda       -0.4005717E-01
   maximum displ.:     0.2298765 α      in ANC's #14, #10, #17, ...

........................................................................
.............................. CYCLE   17 ..............................
........................................................................

 iter      E             dE          RMSdq      gap      omega  full diag
   1    -60.8678093 -0.608678E+02  0.381E+00    0.32       0.0  T
   2    -57.3921718  0.347564E+01  0.914E+00    0.04       1.0  T
   3    -60.8911804 -0.349901E+01  0.472E+00    0.51       1.0  T
   4    -60.9596659 -0.684855E-01  0.397E+00    0.30       1.0  T
   5    -61.5874788 -0.627813E+00  0.156E+00    0.01       1.0  T
   6    -61.3644189  0.223060E+00  0.265E+00    0.05       1.0  T
   7    -61.6155014 -0.251083E+00  0.171E+00    0.14       1.0  T
   8    -61.6174727 -0.197126E-02  0.164E+00    0.12       1.0  T
   9    -61.4645333  0.152939E+00  0.202E+00    0.02       1.0  T
  10    -61.6355861 -0.171053E+00  0.130E+00    0.09       1.0  T
  11    -61.6582601 -0.226741E-01  0.897E-01    0.05       1.0  T
  12    -61.6559438  0.231635E-02  0.937E-01    0.05       1.0  T
  13    -61.6487289  0.721484E-02  0.104E+00    0.06       1.0  T
  14    -61.6482873  0.441690E-03  0.105E+00    0.07       1.0  T
  15    -61.6304097  0.178776E-01  0.122E+00    0.02       1.0  T
  16    -61.6700542 -0.396445E-01  0.681E-01    0.03       1.0  T
  17    -61.6553197  0.147345E-01  0.909E-01    0.02       1.0  T
  18    -61.6760218 -0.207021E-01  0.573E-01    0.01       1.0  T
  19    -61.6507100  0.253118E-01  0.951E-01    0.02       1.0  T
  20    -61.6842285 -0.335185E-01  0.360E-01    0.00       1.0  T
  21    -61.6887559 -0.452740E-02  0.145E-01    0.01       1.0  T
  22    -61.6896228 -0.866878E-03  0.255E-02    0.00       1.0  T
  23    -61.6895828  0.400574E-04  0.350E-02    0.00       1.0  T
  24    -61.6895437  0.390751E-04  0.456E-02    0.00       1.0  T
  25    -61.6895828 -0.390789E-04  0.342E-02    0.00       1.0  T
  26    -61.6896321 -0.493318E-04  0.600E-03    0.00       3.4  T
  27    -61.6896280  0.411652E-05  0.115E-02    0.00       1.8  T
  28    -61.6896336 -0.560677E-05  0.143E-03    0.00      14.3  T
  29    -61.6896337 -0.106294E-06  0.425E-04    0.00      48.1  T
  30    -61.6896337  0.136677E-07  0.681E-04    0.00      30.0  T
     SCC iter.                  ...        0 min,  0.029 sec
     gradient                   ...        0 min,  0.008 sec
 * total energy  :   -61.0034756 Eh     change       -0.3387387E-01 Eh
   gradient norm :     0.2002902 Eh/α   predicted    -0.2568241E-01 ( -24.18%)
   displ. norm   :     0.7043841 α      lambda       -0.5345606E-01
   maximum displ.:     0.2852141 α      in ANC's #14, #62, #17, ...

........................................................................
.............................. CYCLE   18 ..............................
........................................................................

 iter      E             dE          RMSdq      gap      omega  full diag
   1    -61.1757345 -0.611757E+02  0.326E+00    0.31       0.0  T
   2    -59.0568082  0.211893E+01  0.787E+00    0.32       1.0  T
   3    -60.9396598 -0.188285E+01  0.430E+00    0.37       1.0  T
   4    -61.5956629 -0.656003E+00  0.222E+00    0.35       1.0  T
   5    -61.6537138 -0.580509E-01  0.189E+00    0.26       1.0  T
   6    -61.6727366 -0.190229E-01  0.166E+00    0.17       1.0  T
   7    -61.4465426  0.226194E+00  0.245E+00    0.15       1.0  T
   8    -61.4742689 -0.277262E-01  0.231E+00    0.12       1.0  T
   9    -61.7277763 -0.253507E+00  0.101E+00    0.04       1.0  T
  10    -61.5310030  0.196773E+00  0.206E+00    0.05       1.0  T
  11    -61.7415318 -0.210529E+00  0.748E-01    0.02       1.0  T
  12    -61.6945306  0.470012E-01  0.124E+00    0.13       1.0  T
  13    -61.7075873 -0.130567E-01  0.108E+00    0.11       1.0  T
  14    -61.6734123  0.341750E-01  0.132E+00    0.05       1.0  T
  15    -61.7610227 -0.876104E-01  0.310E-01    0.04       1.0  T
  16    -61.7619938 -0.971125E-03  0.270E-01    0.04       1.0  T
  17    -61.7626248 -0.630964E-03  0.246E-01    0.04       1.0  T
  18    -61.7656350 -0.301016E-02  0.335E-02    0.02       1.0  T
  19    -61.7656077  0.272168E-04  0.411E-02    0.02       1.0  T
  20    -61.7654692  0.138525E-03  0.657E-02    0.02       1.0  T
  21    -61.7656885 -0.219254E-03  0.503E-03    0.02       4.1  T
  22    -61.7656882  0.302958E-06  0.540E-03    0.02       3.8  T
  23    -61.7656874  0.800717E-06  0.660E-03    0.02       3.1  T
  24    -61.7656887 -0.135064E-05  0.420E-03    0.02       4.9  T
  25    -61.7656896 -0.881111E-06  0.163E-04    0.02     125.3  T
  26    -61.7656896  0.535387E-09  0.189E-04    0.02     107.8  T
     SCC iter.                  ...        0 min,  0.025 sec
     gradient                   ...        0 min,  0.008 sec
 * total energy  :   -61.0481980 Eh     change       -0.4472245E-01 Eh
   gradient norm :     0.2469801 Eh/α   predicted    -0.3998940E-01 ( -10.58%)
   displ. norm   :     0.6583320 α      lambda       -0.5306961E-01
   maximum displ.:     0.2389890 α      in ANC's #3, #14, #20, ...

........................................................................
.............................. CYCLE   19 ..............................
........................................................................

 iter      E             dE          RMSdq      gap      omega  full diag
   1    -61.4736014 -0.614736E+02  0.279E+00    0.25       0.0  T
   2    -59.1516182  0.232198E+01  0.747E+00    0.60       1.0  T
   3    -61.6170907 -0.246547E+01  0.228E+00    0.12       1.0  T
   4    -61.5066415  0.110449E+00  0.263E+00    0.39       1.0  T
   5    -61.6255879 -0.118946E+00  0.199E+00    0.24       1.0  T
   6    -61.7195952 -0.940074E-01  0.131E+00    0.08       1.0  T
   7    -61.7028713  0.167239E-01  0.145E+00    0.07       1.0  T
   8    -61.7073423 -0.447099E-02  0.144E+00    0.09       1.0  T
   9    -61.7507776 -0.434354E-01  0.965E-01    0.06       1.0  T
  10    -61.7458221  0.495556E-02  0.986E-01    0.05       1.0  T
  11    -61.7732223 -0.274002E-01  0.662E-01    0.03       1.0  T
  12    -61.7919804 -0.187581E-01  0.281E-01    0.00       1.0  T
  13    -61.7952359 -0.325551E-02  0.833E-02    0.01       1.0  T
  14    -61.7936860  0.154994E-02  0.192E-01    0.00       1.0  T
  15    -61.7952474 -0.156138E-02  0.758E-02    0.01       1.0  T
  16    -61.7954754 -0.228076E-03  0.235E-02    0.01       1.0  T
  17    -61.7954935 -0.180429E-04  0.151E-02    0.01       1.4  T
  18    -61.7955024 -0.896915E-05  0.469E-03    0.01       4.4  T
  19    -61.7955031 -0.663846E-06  0.223E-03    0.01       9.2  T
  20    -61.7955032 -0.468980E-07  0.209E-03    0.01       9.8  T
  21    -61.7955033 -0.158177E-06  0.988E-04    0.01      20.7  T
  22    -61.7955033 -0.177156E-07  0.680E-04    0.01      30.0  T
     SCC iter.                  ...        0 min,  0.021 sec
     gradient                   ...        0 min,  0.008 sec
 * total energy  :   -61.0801276 Eh     change       -0.3192956E-01 Eh
   gradient norm :     0.2914735 Eh/α   predicted    -0.3803505E-01 (  19.12%)
   displ. norm   :     0.3955846 α      lambda       -0.4184887E-01
   maximum displ.:     0.3026839 α      in ANC's #3, #10, #20, ...

........................................................................
.............................. CYCLE   20 ..............................
........................................................................

 iter      E             dE          RMSdq      gap      omega  full diag
   1    -61.6580884 -0.616581E+02  0.199E+00    0.15       0.0  T
   2    -59.1929711  0.246512E+01  0.743E+00    1.27       1.0  T
   3    -61.5706739 -0.237770E+01  0.255E+00    0.24       1.0  T
   4    -61.5951616 -0.244877E-01  0.261E+00    0.31       1.0  T
   5    -61.6466015 -0.514399E-01  0.196E+00    0.16       1.0  T
   6    -61.7954750 -0.148873E+00  0.107E+00    0.05       1.0  T
   7    -61.7993608 -0.388575E-02  0.920E-01    0.05       1.0  T
   8    -61.8260799 -0.267191E-01  0.536E-01    0.01       1.0  T
   9    -61.8223557  0.372418E-02  0.480E-01    0.02       1.0  T
  10    -61.7955178  0.268379E-01  0.890E-01    0.06       1.0  T
  11    -61.8323691 -0.368514E-01  0.206E-01    0.01       1.0  T
  12    -61.8342248 -0.185565E-02  0.339E-02    0.00       1.0  T
  13    -61.8340810  0.143840E-03  0.662E-02    0.01       1.0  T
  14    -61.8338318  0.249124E-03  0.958E-02    0.01       1.0  T
  15    -61.8341666 -0.334819E-03  0.441E-02    0.01       1.0  T
  16    -61.8341848 -0.181247E-04  0.373E-02    0.01       1.0  T
  17    -61.8342409 -0.561588E-04  0.124E-02    0.00       1.6  T
  18    -61.8342468 -0.590825E-05  0.381E-03    0.00       5.4  T
  19    -61.8342475 -0.709084E-06  0.447E-04    0.00      45.6  T
  20    -61.8342475  0.625558E-08  0.458E-04    0.00      44.6  T
     SCC iter.                  ...        0 min,  0.019 sec
     gradient                   ...        0 min,  0.008 sec
 * total energy  :   -61.1120062 Eh     change       -0.3187862E-01 Eh
   gradient norm :     0.2908131 Eh/α   predicted    -0.2419888E-01 ( -24.09%)
   displ. norm   :     0.5144335 α      lambda       -0.7744734E-01
   maximum displ.:     0.2631042 α      in ANC's #20, #3, #16, ...
 * RMSD in coord.:     1.4894368 α      energy gain  -0.1421831E+02 Eh

generating ANC from model Hessian ...
Using Lindh-Hessian (1995)
 Shifting diagonal of input Hessian by    9.9191020284317161E-003
 Lowest  eigenvalues of input Hessian
    0.000000    0.000000    0.000000    0.000000    0.000000    0.000000
    0.010000    0.010475    0.011164    0.012058    0.014238    0.016323
    0.016717    0.018286    0.022502    0.027955    0.031390    0.037534
 Highest eigenvalues
    2.213044    2.301514    2.343584    2.510702    2.690867    2.887442


........................................................................
.............................. CYCLE   21 ..............................
........................................................................

 iter      E             dE          RMSdq      gap      omega  full diag
   1    -61.7075853 -0.617076E+02  0.180E+00    0.17       0.0  T
   2    -59.2062396  0.250135E+01  0.729E+00    0.77       1.0  T
   3    -61.6406842 -0.243444E+01  0.258E+00    0.13       1.0  T
   4    -61.5498764  0.908078E-01  0.239E+00    0.09       1.0  T
   5    -61.7062539 -0.156377E+00  0.171E+00    0.09       1.0  T
   6    -61.7722191 -0.659652E-01  0.119E+00    0.14       1.0  T
   7    -61.7947401 -0.225210E-01  0.894E-01    0.07       1.0  T
   8    -61.7727465  0.219937E-01  0.935E-01    0.07       1.0  T
   9    -61.8017445 -0.289980E-01  0.779E-01    0.05       1.0  T
  10    -61.8107923 -0.904783E-02  0.380E-01    0.04       1.0  T
  11    -61.8133777 -0.258540E-02  0.124E-01    0.05       1.0  T
  12    -61.8135552 -0.177476E-03  0.987E-02    0.05       1.0  T
  13    -61.8138926 -0.337448E-03  0.358E-02    0.05       1.0  T
  14    -61.8139119 -0.192741E-04  0.298E-02    0.04       1.0  T
  15    -61.8139086  0.329877E-05  0.298E-02    0.04       1.0  T
  16    -61.8139380 -0.293951E-04  0.117E-02    0.04       1.7  T
  17    -61.8139394 -0.135640E-05  0.756E-03    0.04       2.7  T
  18    -61.8139400 -0.613238E-06  0.558E-03    0.04       3.7  T
  19    -61.8139411 -0.114670E-05  0.893E-04    0.04      22.9  T
  20    -61.8139410  0.965900E-07  0.165E-03    0.04      12.4  T
  21    -61.8139410  0.802252E-08  0.160E-03    0.04      12.7  T
  22    -61.8139411 -0.832756E-07  0.898E-04    0.04      22.7  T
  23    -61.8139411 -0.307120E-07  0.412E-04    0.04      49.6  T
     SCC iter.                  ...        0 min,  0.022 sec
     gradient                   ...        0 min,  0.008 sec
 * total energy  :   -61.1667733 Eh     change       -0.5476710E-01 Eh
   gradient norm :     0.2749975 Eh/α   predicted     0.0000000E+00 (-100.00%)
   displ. norm   :     0.5013723 α      lambda       -0.1064805E+00
   maximum displ.:     0.2470915 α      in ANC's #28, #16, #41, ...

........................................................................
.............................. CYCLE   22 ..............................
........................................................................

 iter      E             dE          RMSdq      gap      omega  full diag
   1    -61.8791073 -0.618791E+02  0.115E+00    0.03       0.0  T
   2    -61.7252163  0.153891E+00  0.255E+00    0.18       1.0  T
   3    -61.8149311 -0.897148E-01  0.163E+00    0.30       1.0  T
   4    -61.8167882 -0.185711E-02  0.184E+00    0.29       1.0  T
   5    -61.8244664 -0.767818E-02  0.170E+00    0.21       1.0  T
   6    -61.9015584 -0.770920E-01  0.668E-01    0.03       1.0  T
   7    -61.9088998 -0.734136E-02  0.390E-01    0.04       1.0  T
   8    -61.9125763 -0.367657E-02  0.206E-01    0.03       1.0  T
   9    -61.9131879 -0.611534E-03  0.179E-01    0.04       1.0  T
  10    -61.9135426 -0.354695E-03  0.964E-02    0.04       1.0  T
  11    -61.9119493  0.159322E-02  0.248E-01    0.04       1.0  T
  12    -61.9138599 -0.191054E-02  0.315E-02    0.04       1.0  T
  13    -61.9138890 -0.291445E-04  0.967E-03    0.04       2.1  T
  14    -61.9138891 -0.261403E-07  0.900E-03    0.04       2.3  T
  15    -61.9138915 -0.247905E-05  0.137E-03    0.04      14.9  T
  16    -61.9138913  0.255729E-06  0.300E-03    0.04       6.8  T
  17    -61.9138916 -0.296113E-06  0.221E-04    0.04      92.4  T
  18    -61.9138916  0.107580E-08  0.279E-04    0.04      73.1  T
     SCC iter.                  ...        0 min,  0.017 sec
     gradient                   ...        0 min,  0.008 sec
 * total energy  :   -61.2625087 Eh     change       -0.9573539E-01 Eh
   gradient norm :     0.2355575 Eh/α   predicted    -0.6663622E-01 ( -30.40%)
   displ. norm   :     0.7121803 α      lambda       -0.1390805E+00
   maximum displ.:     0.3091208 α      in ANC's #41, #43, #28, ...

........................................................................
.............................. CYCLE   23 ..............................
........................................................................

 iter      E             dE          RMSdq      gap      omega  full diag
   1    -61.9597097 -0.619597E+02  0.166E+00    0.26       0.0  T
   2    -61.7400071  0.219703E+00  0.290E+00    0.83       1.0  T
   3    -61.9589028 -0.218896E+00  0.150E+00    0.21       1.0  T
   4    -61.9338791  0.250237E-01  0.172E+00    0.12       1.0  T
   5    -62.0144688 -0.805897E-01  0.457E-01    0.05       1.0  T
   6    -62.0105067  0.396217E-02  0.480E-01    0.06       1.0  T
   7    -62.0164024 -0.589577E-02  0.221E-01    0.02       1.0  T
   8    -62.0177204 -0.131798E-02  0.111E-01    0.03       1.0  T
   9    -62.0180649 -0.344436E-03  0.486E-02    0.02       1.0  T
  10    -62.0181250 -0.601162E-04  0.190E-02    0.03       1.1  T
  11    -62.0181334 -0.840239E-05  0.852E-03    0.03       2.4  T
  12    -62.0181346 -0.117704E-05  0.334E-03    0.03       6.1  T
  13    -62.0181346 -0.828485E-07  0.288E-03    0.03       7.1  T
  14    -62.0181348 -0.210636E-06  0.536E-04    0.03      38.1  T
  15    -62.0181349 -0.161518E-08  0.286E-04    0.03      71.5  T
     SCC iter.                  ...        0 min,  0.014 sec
     gradient                   ...        0 min,  0.008 sec
 * total energy  :   -61.3560549 Eh     change       -0.9354620E-01 Eh
   gradient norm :     0.1350323 Eh/α   predicted    -0.1048112E+00 (  12.04%)
   displ. norm   :     0.4928763 α      lambda       -0.3866205E-01
   maximum displ.:     0.2552021 α      in ANC's #16, #24, #7, ...

........................................................................
.............................. CYCLE   24 ..............................
........................................................................

 iter      E             dE          RMSdq      gap      omega  full diag
   1    -62.0311190 -0.620311E+02  0.117E+00    0.20       0.0  T
   2    -61.8063256  0.224793E+00  0.274E+00    0.67       1.0  T
   3    -62.0187509 -0.212425E+00  0.119E+00    0.18       1.0  T
   4    -62.0272734 -0.852248E-02  0.115E+00    0.07       1.0  T
   5    -62.0594485 -0.321751E-01  0.217E-01    0.05       1.0  T
   6    -62.0594011  0.474065E-04  0.167E-01    0.04       1.0  T
   7    -62.0600392 -0.638164E-03  0.587E-02    0.04       1.0  T
   8    -62.0601216 -0.823658E-04  0.172E-02    0.04       1.2  T
   9    -62.0601217 -0.888026E-07  0.148E-02    0.04       1.4  T
  10    -62.0601259 -0.418986E-05  0.839E-03    0.04       2.4  T
  11    -62.0601266 -0.758057E-06  0.708E-03    0.04       2.9  T
  12    -62.0601280 -0.133623E-05  0.268E-03    0.04       7.6  T
  13    -62.0601281 -0.139762E-06  0.896E-04    0.04      22.8  T
  14    -62.0601281 -0.193377E-07  0.274E-04    0.04      74.4  T
     SCC iter.                  ...        0 min,  0.014 sec
     gradient                   ...        0 min,  0.008 sec
 * total energy  :   -61.3836431 Eh     change       -0.2758816E-01 Eh
   gradient norm :     0.0968093 Eh/α   predicted    -0.2402707E-01 ( -12.91%)
   displ. norm   :     0.4571353 α      lambda       -0.2009302E-01
   maximum displ.:     0.2521585 α      in ANC's #16, #7, #14, ...

........................................................................
.............................. CYCLE   25 ..............................
........................................................................

 iter      E             dE          RMSdq      gap      omega  full diag
   1    -62.0685466 -0.620685E+02  0.758E-01    0.13       0.0  T
   2    -61.8636479  0.204899E+00  0.253E+00    0.39       1.0  T
   3    -62.0472067 -0.183559E+00  0.104E+00    0.18       1.0  T
   4    -62.0763036 -0.290969E-01  0.432E-01    0.06       1.0  T
   5    -62.0785506 -0.224703E-02  0.239E-01    0.07       1.0  T
   6    -62.0794825 -0.931874E-03  0.140E-01    0.05       1.0  T
   7    -62.0799050 -0.422492E-03  0.421E-02    0.05       1.0  T
   8    -62.0799522 -0.472503E-04  0.174E-02    0.05       1.2  T
   9    -62.0799573 -0.503507E-05  0.732E-03    0.05       2.8  T
  10    -62.0799576 -0.359662E-06  0.493E-03    0.05       4.1  T
  11    -62.0799580 -0.366771E-06  0.162E-03    0.05      12.6  T
  12    -62.0799580 -0.140063E-07  0.126E-03    0.05      16.2  T
  13    -62.0799580 -0.248574E-07  0.369E-04    0.05      55.3  T
  14    -62.0799580  0.374640E-08  0.483E-04    0.05      42.3  T
     SCC iter.                  ...        0 min,  0.014 sec
     gradient                   ...        0 min,  0.008 sec
 * total energy  :   -61.3980079 Eh     change       -0.1436482E-01 Eh
   gradient norm :     0.0678044 Eh/α   predicted    -0.1214596E-01 ( -15.45%)
   displ. norm   :     0.3825422 α      lambda       -0.1104629E-01
   maximum displ.:     0.2059630 α      in ANC's #14, #16, #7, ...

........................................................................
.............................. CYCLE   26 ..............................
........................................................................

 iter      E             dE          RMSdq      gap      omega  full diag
   1    -62.0856725 -0.620857E+02  0.601E-01    0.15       0.0  T
   2    -61.8772406  0.208432E+00  0.247E+00    0.39       1.0  T
   3    -62.0849804 -0.207740E+00  0.712E-01    0.08       1.0  T
   4    -62.0962739 -0.112936E-01  0.246E-01    0.06       1.0  T
   5    -62.0969236 -0.649692E-03  0.117E-01    0.07       1.0  T
   6    -62.0969896 -0.660131E-04  0.669E-02    0.06       1.0  T
   7    -62.0970711 -0.814343E-04  0.373E-02    0.06       1.0  T
   8    -62.0971012 -0.301559E-04  0.106E-02    0.06       1.9  T
   9    -62.0971023 -0.110346E-05  0.718E-03    0.06       2.8  T
  10    -62.0971033 -0.955113E-06  0.344E-03    0.06       5.9  T
  11    -62.0971036 -0.312000E-06  0.145E-03    0.06      14.1  T
  12    -62.0971037 -0.490111E-07  0.551E-04    0.06      37.0  T
  13    -62.0971036  0.129515E-07  0.812E-04    0.06      25.1  T
     SCC iter.                  ...        0 min,  0.013 sec
     gradient                   ...        0 min,  0.008 sec
 * total energy  :   -61.4052139 Eh     change       -0.7206048E-02 Eh
   gradient norm :     0.0442023 Eh/α   predicted    -0.6331510E-02 ( -12.14%)
   displ. norm   :     0.3871662 α      lambda       -0.6202573E-02
   maximum displ.:     0.2917064 α      in ANC's #14, #16, #18, ...

........................................................................
.............................. CYCLE   27 ..............................
........................................................................

 iter      E             dE          RMSdq      gap      omega  full diag
   1    -62.0829153 -0.620829E+02  0.400E-01    0.05       0.0  T
   2    -62.0451757  0.377395E-01  0.120E+00    0.28       1.0  T
   3    -62.0847589 -0.395832E-01  0.275E-01    0.09       1.0  T
   4    -62.0737857  0.109732E-01  0.673E-01    0.03       1.0  T
   5    -62.0836138 -0.982813E-02  0.285E-01    0.09       1.0  T
   6    -62.0838263 -0.212412E-03  0.288E-01    0.05       1.0  T
   7    -62.0858195 -0.199328E-02  0.111E-01    0.06       1.0  T
   8    -62.0861618 -0.342289E-03  0.369E-02    0.06       1.0  T
   9    -62.0861950 -0.331565E-04  0.137E-02    0.06       1.5  T
  10    -62.0861987 -0.376931E-05  0.559E-03    0.06       3.7  T
  11    -62.0861996 -0.822923E-06  0.175E-03    0.06      11.7  T
  12    -62.0861996 -0.270624E-07  0.113E-03    0.06      18.1  T
  13    -62.0861996 -0.237166E-07  0.260E-04    0.06      78.5  T
  14    -62.0861996 -0.437836E-10  0.145E-04    0.06     140.4  T
     SCC iter.                  ...        0 min,  0.014 sec
     gradient                   ...        0 min,  0.008 sec
 * total energy  :   -61.4072046 Eh     change       -0.1990702E-02 Eh
   gradient norm :     0.0673667 Eh/α   predicted    -0.3566172E-02 (  79.14%)
   displ. norm   :     0.1250968 α      lambda       -0.3349582E-02
   maximum displ.:     0.0837795 α      in ANC's #7, #14, #22, ...

........................................................................
.............................. CYCLE   28 ..............................
........................................................................

 iter      E             dE          RMSdq      gap      omega  full diag
   1    -62.0842250 -0.620842E+02  0.653E-01    0.12       0.0  T
   2    -61.9259929  0.158232E+00  0.239E+00    0.38       1.0  T
   3    -62.0805809 -0.154588E+00  0.844E-01    0.12       1.0  T
   4    -62.0881994 -0.761846E-02  0.494E-01    0.03       1.0  T
   5    -62.0964455 -0.824609E-02  0.746E-02    0.07       1.0  T
   6    -62.0964641 -0.186669E-04  0.600E-02    0.06       1.0  T
   7    -62.0961725  0.291638E-03  0.105E-01    0.05       1.0  T
   8    -62.0965307 -0.358197E-03  0.188E-02    0.06       1.1  T
   9    -62.0965300  0.699083E-06  0.166E-02    0.06       1.2  T
  10    -62.0965370 -0.698650E-05  0.241E-03    0.06       8.5  T
  11    -62.0965371 -0.139145E-06  0.712E-04    0.06      28.7  T
  12    -62.0965371  0.785342E-08  0.794E-04    0.06      25.7  T
     SCC iter.                  ...        0 min,  0.012 sec
     gradient                   ...        0 min,  0.008 sec
 * total energy  :   -61.4090563 Eh     change       -0.1851629E-02 Eh
   gradient norm :     0.0227650 Eh/α   predicted    -0.1701012E-02 (  -8.13%)
   displ. norm   :     0.0895589 α      lambda       -0.7244943E-03
   maximum displ.:     0.0596319 α      in ANC's #14, #24, #7, ...

........................................................................
.............................. CYCLE   29 ..............................
........................................................................

 iter      E             dE          RMSdq      gap      omega  full diag
   1    -62.0967173 -0.620967E+02  0.284E-01    0.07       0.0  T
   2    -62.0180668  0.786505E-01  0.173E+00    0.14       1.0  T
   3    -62.0935554 -0.754886E-01  0.381E-01    0.11       1.0  T
   4    -62.0980615 -0.450617E-02  0.111E-01    0.06       1.0  T
   5    -62.0981227 -0.612109E-04  0.742E-02    0.07       1.0  T
   6    -62.0982735 -0.150787E-03  0.183E-02    0.06       1.1  T
   7    -62.0982813 -0.776023E-05  0.652E-03    0.06       3.1  T
   8    -62.0982821 -0.816404E-06  0.334E-03    0.06       6.1  T
   9    -62.0982822 -0.137020E-06  0.141E-03    0.06      14.5  T
  10    -62.0982822 -0.165906E-08  0.117E-03    0.06      17.4  T
  11    -62.0982823 -0.318959E-07  0.624E-04    0.06      32.7  T
  12    -62.0982823 -0.646477E-08  0.361E-04    0.06      56.5  T
     SCC iter.                  ...        0 min,  0.012 sec
     gradient                   ...        0 min,  0.008 sec
 * total energy  :   -61.4094247 Eh     change       -0.3684473E-03 Eh
   gradient norm :     0.0202863 Eh/α   predicted    -0.3651593E-03 (  -0.89%)
   displ. norm   :     0.0905427 α      lambda       -0.5681263E-03
   maximum displ.:     0.0489454 α      in ANC's #7, #14, #13, ...

........................................................................
.............................. CYCLE   30 ..............................
........................................................................

 iter      E             dE          RMSdq      gap      omega  full diag
   1    -62.0974077 -0.620974E+02  0.297E-01    0.06       0.0  T
   2    -62.0663491  0.310586E-01  0.122E+00    0.15       1.0  T
   3    -62.0908964 -0.245473E-01  0.490E-01    0.12       1.0  T
   4    -62.0986260 -0.772962E-02  0.110E-01    0.06       1.0  T
   5    -62.0987930 -0.167007E-03  0.525E-02    0.06       1.0  T
   6    -62.0988497 -0.566899E-04  0.227E-02    0.06       1.0  T
   7    -62.0988609 -0.112062E-04  0.818E-03    0.06       2.5  T
   8    -62.0988622 -0.132027E-05  0.422E-03    0.06       4.8  T
   9    -62.0988624 -0.174504E-06  0.306E-03    0.06       6.7  T
  10    -62.0988627 -0.312031E-06  0.447E-04    0.06      45.6  T
  11    -62.0988627  0.718727E-08  0.553E-04    0.06      36.9  T
     SCC iter.                  ...        0 min,  0.011 sec
     gradient                   ...        0 min,  0.008 sec
 * total energy  :   -61.4096966 Eh     change       -0.2718739E-03 Eh
   gradient norm :     0.0089759 Eh/α   predicted    -0.2864082E-03 (   5.35%)
   displ. norm   :     0.0233379 α      lambda       -0.7888217E-04
   maximum displ.:     0.0134353 α      in ANC's #14, #24, #13, ...

........................................................................
.............................. CYCLE   31 ..............................
........................................................................

 iter      E             dE          RMSdq      gap      omega  full diag
   1    -62.0977191 -0.620977E+02  0.106E-01    0.05       0.0  T
   2    -62.0850682  0.126509E-01  0.618E-01    0.15       1.0  T
   3    -62.0976094 -0.125411E-01  0.145E-01    0.07       1.0  T
   4    -62.0980692 -0.459779E-03  0.271E-02    0.06       1.0  T
   5    -62.0980767 -0.754172E-05  0.168E-02    0.06       1.2  T
   6    -62.0980809 -0.421860E-05  0.100E-02    0.06       2.0  T
   7    -62.0980840 -0.303303E-05  0.230E-03    0.06       8.9  T
   8    -62.0980841 -0.118202E-06  0.776E-04    0.06      26.3  T
   9    -62.0980841 -0.643720E-08  0.368E-04    0.06      55.5  T
     SCC iter.                  ...        0 min,  0.009 sec
     gradient                   ...        0 min,  0.008 sec
 * total energy  :   -61.4097576 Eh     change       -0.6101999E-04 Eh
   gradient norm :     0.0062249 Eh/α   predicted    -0.3947235E-04 ( -35.31%)
   displ. norm   :     0.0407398 α      lambda       -0.1076039E-03
   maximum displ.:     0.0221176 α      in ANC's #24, #14, #13, ...

........................................................................
.............................. CYCLE   32 ..............................
........................................................................

 iter      E             dE          RMSdq      gap      omega  full diag
   1    -62.0967297 -0.620967E+02  0.214E-01    0.04       0.0  T
   2    -62.0729757  0.237541E-01  0.858E-01    0.23       1.0  T
   3    -62.0956621 -0.226864E-01  0.332E-01    0.08       1.0  T
   4    -62.0979104 -0.224836E-02  0.959E-02    0.07       1.0  T
   5    -62.0981493 -0.238806E-03  0.378E-02    0.05       1.0  T
   6    -62.0981565 -0.729636E-05  0.309E-02    0.05       1.0  T
   7    -62.0981886 -0.320592E-04  0.386E-03    0.06       5.3  T
   8    -62.0981890 -0.374400E-06  0.160E-03    0.06      12.7  T
   9    -62.0981890  0.516444E-08  0.137E-03    0.06      14.9  T
  10    -62.0981890 -0.385200E-07  0.525E-04    0.06      38.9  T
  11    -62.0981890 -0.814516E-08  0.122E-04    0.06     167.5  T
     SCC iter.                  ...        0 min,  0.011 sec
     gradient                   ...        0 min,  0.008 sec
 * total energy  :   -61.4098263 Eh     change       -0.6864734E-04 Eh
   gradient norm :     0.0050155 Eh/α   predicted    -0.5390764E-04 ( -21.47%)
   displ. norm   :     0.0269202 α      lambda       -0.4162881E-04
   maximum displ.:     0.0116023 α      in ANC's #24, #20, #9, ...

........................................................................
.............................. CYCLE   33 ..............................
........................................................................

 iter      E             dE          RMSdq      gap      omega  full diag
   1    -62.0980499 -0.620980E+02  0.107E-01    0.05       0.0  T
   2    -62.0862606  0.117893E-01  0.591E-01    0.14       1.0  T
   3    -62.0977262 -0.114657E-01  0.172E-01    0.06       1.0  T
   4    -62.0983600 -0.633729E-03  0.266E-02    0.05       1.0  T
   5    -62.0983579  0.203649E-05  0.190E-02    0.06       1.1  T
   6    -62.0983663 -0.837871E-05  0.953E-03    0.05       2.1  T
   7    -62.0983690 -0.270377E-05  0.220E-03    0.06       9.3  T
   8    -62.0983691 -0.748700E-07  0.121E-03    0.06      16.8  T
   9    -62.0983691 -0.358324E-07  0.467E-04    0.06      43.7  T
  10    -62.0983691 -0.458067E-08  0.946E-05    0.06     215.8  T
     SCC iter.                  ...        0 min,  0.010 sec
     gradient                   ...        0 min,  0.008 sec
 * total energy  :   -61.4098504 Eh     change       -0.2414240E-04 Eh
   gradient norm :     0.0044346 Eh/α   predicted    -0.2083304E-04 ( -13.71%)
   displ. norm   :     0.0374054 α      lambda       -0.5081201E-04
   maximum displ.:     0.0140426 α      in ANC's #20, #3, #24, ...

........................................................................
.............................. CYCLE   34 ..............................
........................................................................

 iter      E             dE          RMSdq      gap      omega  full diag
   1    -62.0982959 -0.620983E+02  0.124E-01    0.04       0.0  T
   2    -62.0846443  0.136516E-01  0.636E-01    0.14       1.0  T
   3    -62.0978897 -0.132454E-01  0.191E-01    0.06       1.0  T
   4    -62.0986317 -0.742053E-03  0.500E-02    0.05       1.0  T
   5    -62.0986496 -0.178571E-04  0.266E-02    0.05       1.0  T
   6    -62.0986715 -0.219739E-04  0.922E-03    0.05       2.2  T
   7    -62.0986738 -0.225319E-05  0.299E-03    0.05       6.8  T
   8    -62.0986739 -0.126684E-06  0.209E-03    0.05       9.8  T
   9    -62.0986741 -0.133292E-06  0.377E-04    0.05      54.2  T
  10    -62.0986741 -0.122575E-08  0.156E-04    0.05     131.0  T
     SCC iter.                  ...        0 min,  0.010 sec
     gradient                   ...        0 min,  0.008 sec
 * total energy  :   -61.4098613 Eh     change       -0.1092948E-04 Eh
   gradient norm :     0.0036242 Eh/α   predicted    -0.2544296E-04 ( 132.79%)
   displ. norm   :     0.0207962 α      lambda       -0.2991181E-04
   maximum displ.:     0.0097835 α      in ANC's #3, #6, #11, ...

........................................................................
.............................. CYCLE   35 ..............................
........................................................................

 iter      E             dE          RMSdq      gap      omega  full diag
   1    -62.0988542 -0.620989E+02  0.571E-02    0.06       0.0  T
   2    -62.0916587  0.719551E-02  0.456E-01    0.02       1.0  T
   3    -62.0987633 -0.710464E-02  0.810E-02    0.06       1.0  T
   4    -62.0988720 -0.108670E-03  0.492E-02    0.06       1.0  T
   5    -62.0989123 -0.403049E-04  0.179E-02    0.05       1.1  T
   6    -62.0989225 -0.101996E-04  0.269E-03    0.05       7.6  T
   7    -62.0989225 -0.967188E-08  0.216E-03    0.05       9.4  T
   8    -62.0989226 -0.113866E-06  0.102E-03    0.05      19.9  T
   9    -62.0989226 -0.260332E-07  0.370E-04    0.05      55.2  T
  10    -62.0989226 -0.278481E-08  0.147E-04    0.05     138.6  T
     SCC iter.                  ...        0 min,  0.010 sec
     gradient                   ...        0 min,  0.008 sec
 * total energy  :   -61.4098781 Eh     change       -0.1673338E-04 Eh
   gradient norm :     0.0021834 Eh/α   predicted    -0.1496833E-04 ( -10.55%)
   displ. norm   :     0.0197944 α      lambda       -0.1698359E-04
   maximum displ.:     0.0072185 α      in ANC's #16, #9, #13, ...

........................................................................
.............................. CYCLE   36 ..............................
........................................................................

 iter      E             dE          RMSdq      gap      omega  full diag
   1    -62.0985201 -0.620985E+02  0.697E-02    0.06       0.0  T
   2    -62.0824128  0.161073E-01  0.680E-01    0.00       1.0  T
   3    -62.0983796 -0.159668E-01  0.108E-01    0.06       1.0  T
   4    -62.0986337 -0.254140E-03  0.323E-02    0.06       1.0  T
   5    -62.0986618 -0.281009E-04  0.101E-02    0.06       2.0  T
   6    -62.0986634 -0.152028E-05  0.612E-03    0.06       3.3  T
   7    -62.0986641 -0.752885E-06  0.278E-03    0.06       7.3  T
   8    -62.0986644 -0.250469E-06  0.474E-04    0.06      43.1  T
[...]
N            2.83089731682735       -2.44182270621316        0.00009624294129
C            1.57161920529778       -2.68239272713814        0.00002786257963
C           -0.68230809665823       -1.69408658246024       -0.00001985025541
C           -2.99108524610992       -1.21668162463789        0.00016906816138
N           -2.47201195206170        1.56499252230962        0.00001698646239
C           -1.92105206594036        2.78157368044226       -0.00015726155663
O            0.84854570469864        3.06705226842522       -0.00009928758687
O            3.01763620401710        2.32883851495326        0.00000430836751
N            3.96526509839310       -2.36020481671809        0.00004620675749
O            1.14756671623431       -4.00361501089772        0.00008068275803
O           -1.24798201285409       -2.92375705202289        0.00002681239597
N           -4.06519962440014       -1.60923053625145       -0.00016951744491
O           -2.36381000475640        3.88296202525192        0.00033482978951
H            3.15918446918120        3.28745976270970        0.00003210125760
H            1.90270716920066       -4.60329329554959       -0.00003476324933
H           -0.57402061182785       -3.62256554759280        0.00006246620743

 Bond Distances (Angstroems)
 ---------------------------
C1-C2=1.4104         C1-C6=1.3923         C1-N7=1.3519         C2-C1=1.4104         C2-N3=1.3159         C2-C8=1.4154         
N3-C2=1.3159         N3-C4=1.3843         C4-N3=1.3843         C4-C10=1.4477        C4-C11=1.3884        N5-C6=1.3695         
N5-C11=1.4223        N5-C12=1.3360        C6-C1=1.3923         C6-N5=1.3695         C6-N13=1.3290        N7-C1=1.3519         
N7-C14=1.5311        N7-O15=1.3776        C8-C2=1.4154         C8-O15=1.3522        C8-O16=1.3168        N9-C10=1.2821        
N9-N17=1.1373        C10-C4=1.4477        C10-N9=1.2821        C10-O18=1.3876       C11-C4=1.3884        C11-N5=1.4223        
C11-O19=1.3535       C12-N5=1.3360        C12-N20=1.1436       N13-C6=1.3290        N13-C14=1.3355       C14-N7=1.5311        
C14-N13=1.3355       C14-O21=1.1871       O15-N7=1.3776        O15-C8=1.3522        O16-C8=1.3168        O16-H22=0.9690       
N17-N9=1.1373        O18-C10=1.3876       O18-H23=0.9643       O19-C11=1.3535       O19-H24=0.9709       N20-C12=1.1436       
O21-C14=1.1871       H22-O16=0.9690       H23-O18=0.9643       H24-O19=0.9709       
 C  C  Rav=1.4109 sigma=0.0211  Rmin=1.3884  Rmax=1.4477     5
 N  C  Rav=1.3456 sigma=0.0897  Rmin=1.1436  Rmax=1.5311    11
 N  N  Rav=1.1373 sigma=0.0000  Rmin=1.1373  Rmax=1.1373     1
 O  H  Rav=0.9681 sigma=0.0028  Rmin=0.9643  Rmax=0.9709     3
 O  C  Rav=1.3194 sigma=0.0699  Rmin=1.1871  Rmax=1.3876     5
 O  N  Rav=1.3776 sigma=0.0000  Rmin=1.3776  Rmax=1.3776     1

 selected bond angles (degree)
 --------------------
C6-C1-C2=140.46                N7-C1-C2=111.88                N7-C1-C6=107.66                N3-C2-C1=126.83                
C8-C2-C1=101.34                C8-C2-N3=131.83                C4-N3-C2=120.65                C10-C4-N3=104.41               
C11-C4-N3=135.20               C11-C4-C10=120.38              C11-N5-C6=123.72               C12-N5-C6=118.85               
C12-N5-C11=117.43              N5-C6-C1=121.84                N13-C6-C1=110.44               N13-C6-N5=127.71               
C14-N7-C1=106.06               O15-N7-C1=107.62               O15-N7-C14=146.32              O15-C8-C2=111.99               
O16-C8-C2=129.73               O16-C8-O15=118.28              N17-N9-C10=173.30              N9-C10-C4=116.39               
O18-C10-C4=125.00              O18-C10-N9=118.61              

 selected dihedral angles (degree)
 ---------------------------------
N3-C2-C1-C6=  0.00            N3-C2-C1-N7=180.00            C8-C2-C1-C6=180.01            C8-C2-C1-N7=  0.00            
C4-N3-C2-C1=  0.00            C4-N3-C2-C8=180.00            C10-C4-N3-C2=180.00           C11-C4-N3-C2=  0.00           
N5-C6-C1-C2=  0.00            N5-C6-C1-N7=180.00            N13-C6-C1-C2=179.99           N13-C6-C1-N7=  0.00           
C1-C6-N5-C11=  0.00           C1-C6-N5-C12=179.99           N13-C6-N5-C11=180.00          N13-C6-N5-C12=  0.00          
C14-N7-C1-C2=180.00           C14-N7-C1-C6=  0.00           O15-N7-C1-C2=  0.00           O15-N7-C1-C6=180.00           
O15-C8-C2-C1=  0.00           O15-C8-C2-N3=180.00           O16-C8-C2-C1=180.00           O16-C8-C2-N3=  0.00           
N9-C10-C4-N3=  0.00           N9-C10-C4-C11=180.00          O18-C10-C4-N3=180.00          O18-C10-C4-C11=  0.00         
C4-C10-N9-N17=180.05          O18-C10-N9-N17=  0.05         
           -------------------------------------------------
          |                Final Singlepoint                |
           -------------------------------------------------

          ...................................................
          :                      SETUP                      :
          :.................................................:
          :  # basis functions                  87          :
          :  # atomic orbitals                  87          :
          :  # shells                           45          :
          :  # electrons                       104          :
          :  max. iterations                   250          :
          :  Hamiltonian                  GFN2-xTB          :
          :  restarted?                      false          :
          :  GBSA solvation                  false          :
          :  PC potential                    false          :
          :  electronic temp.          300.0000000     K    :
          :  accuracy                    1.0000000          :
          :  -> integral cutoff          0.2500000E+02      :
          :  -> integral neglect         0.1000000E-07      :
          :  -> SCF convergence          0.1000000E-05 Eh   :
          :  -> wf. convergence          0.1000000E-03 e    :
          :  Broyden damping             0.4000000          :
          ...................................................

 iter      E             dE          RMSdq      gap      omega  full diag
   1    -62.0985537 -0.620986E+02  0.960E-05    0.06       0.0  T
   2    -62.0985537  0.416872E-08  0.366E-04    0.06      55.8  T
   3    -62.0985537 -0.313135E-08  0.192E-04    0.06     106.6  T

   *** convergence criteria satisfied after 3 iterations ***

         #    Occupation            Energy/Eh            Energy/eV
      -------------------------------------------------------------
         1        2.0000           -0.8210314             -22.3414
       ...           ...                  ...                  ...
        46        2.0000           -0.4556573             -12.3991
        47        2.0000           -0.4480591             -12.1923
        48        2.0000           -0.4430225             -12.0553
        49        2.0000           -0.4275834             -11.6351
        50        2.0000           -0.4101059             -11.1595
        51        2.0000           -0.3885838             -10.5739
        52        1.4966           -0.3566743              -9.7056 (HOMO)
        53        0.5034           -0.3546043              -9.6493 (LUMO)
        54                         -0.3296743              -8.9709
        55                         -0.2767249              -7.5301
        56                         -0.2478206              -6.7435
        57                         -0.2254937              -6.1360
       ...                                ...                  ...
        87                          1.1798722              32.1060
      -------------------------------------------------------------
                  HL-Gap            0.0020700 Eh            0.0563 eV
             Fermi-level           -0.3556393 Eh           -9.6774 eV

 SCC (total)                   0 d,  0 h,  0 min,  0.015 sec
 SCC setup                      ...        0 min,  0.000 sec (  0.671%)
 Dispersion                     ...        0 min,  0.000 sec (  0.582%)
 classical contributions        ...        0 min,  0.000 sec (  0.230%)
 integral evaluation            ...        0 min,  0.003 sec ( 21.118%)
 iterations                     ...        0 min,  0.003 sec ( 22.242%)
 molecular gradient             ...        0 min,  0.008 sec ( 54.068%)
 printout                       ...        0 min,  0.000 sec (  1.038%)

         :::::::::::::::::::::::::::::::::::::::::::::::::::::
         ::                     SUMMARY                     ::
         :::::::::::::::::::::::::::::::::::::::::::::::::::::
         :: total energy             -61.409894920496 Eh    ::
         :: gradient norm              0.000496120311 Eh/a0 ::
         :: HOMO-LUMO gap              0.056328388232 eV    ::
         ::.................................................::
         :: SCC energy               -62.098553702420 Eh    ::
         :: -> isotropic ES            0.120832320507 Eh    ::
         :: -> anisotropic ES          0.008434368613 Eh    ::
         :: -> anisotropic XC          0.035448795475 Eh    ::
         :: -> dispersion             -0.030140269306 Eh    ::
         :: repulsion energy           0.688614960126 Eh    ::
         :: add. restraining           0.000000000000 Eh    ::
         :: total charge              -0.000000000003 e     ::
         :::::::::::::::::::::::::::::::::::::::::::::::::::::

           -------------------------------------------------
          |                Property Printout                |
           -------------------------------------------------

    * Orbital Energies and Occupations

         #    Occupation            Energy/Eh            Energy/eV
      -------------------------------------------------------------
         1        2.0000           -0.8210314             -22.3414
       ...           ...                  ...                  ...
        40        2.0000           -0.5238113             -14.2536
        41        2.0000           -0.5025675             -13.6756
        42        2.0000           -0.4997663             -13.5993
        43        2.0000           -0.4909403             -13.3592
        44        2.0000           -0.4788191             -13.0293
        45        2.0000           -0.4572573             -12.4426
        46        2.0000           -0.4556573             -12.3991
        47        2.0000           -0.4480591             -12.1923
        48        2.0000           -0.4430225             -12.0553
        49        2.0000           -0.4275834             -11.6351
        50        2.0000           -0.4101059             -11.1595
        51        2.0000           -0.3885838             -10.5739
        52        1.4966           -0.3566743              -9.7056 (HOMO)
        53        0.5034           -0.3546043              -9.6493 (LUMO)
        54                         -0.3296743              -8.9709
        55                         -0.2767249              -7.5301
        56                         -0.2478206              -6.7435
        57                         -0.2254937              -6.1360
        58                         -0.2008575              -5.4656
        59                         -0.1999033              -5.4396
        60                         -0.1857716              -5.0551
        61                         -0.1445866              -3.9344
        62                         -0.1409186              -3.8346
        63                         -0.0679612              -1.8493
       ...                                ...                  ...
        87                          1.1798722              32.1060
      -------------------------------------------------------------
                  HL-Gap            0.0020700 Eh            0.0563 eV
             Fermi-level           -0.3556393 Eh           -9.6774 eV

     #   Z          covCN         q      C6AA      α(0)
     1   6 C        3.157    -0.005    27.824     8.625
     2   6 C        2.935     0.063    26.582     8.456
     3   7 N        1.880    -0.306    28.775     7.952
     4   6 C        2.921     0.030    27.335     8.574
     5   7 N        2.739    -0.003    21.324     6.858
     6   6 C        3.051     0.148    24.749     8.159
     7   7 N        2.916    -0.015    21.531     6.892
     8   6 C        2.927     0.264    22.563     7.790
     9   7 N        1.915     0.177    18.870     6.441
    10   6 C        2.804     0.126    25.233     8.229
    11   6 C        2.785     0.161    24.502     8.108
    12   6 C        1.889     0.186    26.675     8.342
    13   7 N        1.893    -0.286    28.262     7.881
    14   6 C        2.855     0.338    21.276     7.560
    15   8 O        1.789    -0.144    16.466     5.480
    16   8 O        1.659    -0.313    19.228     5.920
    17   7 N        0.986    -0.130    23.430     6.961
    18   8 O        1.658    -0.410    21.048     6.193
    19   8 O        1.662    -0.374    20.350     6.090
    20   7 N        0.911    -0.205    25.451     7.296
    21   8 O        0.856    -0.326    20.259     6.035
    22   1 H        0.805     0.353     0.582     1.198
    23   1 H        0.805     0.318     0.669     1.285
    24   1 H        0.804     0.351     0.585     1.201

 Mol. C6AA /au·bohr⁶  :      10700.495099
 Mol. C8AA /au·bohr⁸  :     259283.280664
 Mol. α(0) /au        :        157.524608


Wiberg/Mayer (AO) data.
largest (>0.10) Wiberg bond orders for each atom

 ---------------------------------------------------------------------------
     #   Z sym  total        # sym  WBO       # sym  WBO       # sym  WBO
 ---------------------------------------------------------------------------
     1   6 C    3.850 --     7 N    1.209     6 C    1.201     2 C    1.165
     2   6 C    3.945 --     3 N    1.357     8 C    1.226     1 C    1.165
     3   7 N    2.846 --     2 C    1.357     4 C    1.155
     4   6 C    3.892 --    11 C    1.399     3 N    1.155    10 C    1.108
     5   7 N    3.535 --    12 C    1.126     6 C    1.105    11 C    1.019
                            20 N    0.106
     6   6 C    3.844 --    13 N    1.374     1 C    1.201     5 N    1.105
     7   7 N    3.387 --     1 C    1.209    15 O    0.986    14 C    0.787
                            21 O    0.114     8 C    0.103
     8   6 C    3.734 --     2 C    1.226    16 O    1.165    15 O    1.120
                             7 N    0.103
     9   7 N    3.744 --    17 N    2.238    10 C    1.365
    10   6 C    3.829 --     9 N    1.365     4 C    1.108    18 O    0.993
                            17 N    0.283
    11   6 C    3.726 --     4 C    1.399    19 O    1.108     5 N    1.019
    12   6 C    3.940 --    20 N    2.758     5 N    1.126
    13   7 N    3.009 --     6 C    1.374    14 C    1.264    21 O    0.103
    14   6 C    3.886 --    21 O    1.761    13 N    1.264     7 N    0.787
    15   8 O    2.325 --     8 C    1.120     7 N    0.986
    16   8 O    2.186 --     8 C    1.165    22 H    0.852
    17   7 N    2.731 --     9 N    2.238    10 C    0.283
    18   8 O    2.072 --    10 C    0.993    23 H    0.873
    19   8 O    2.105 --    11 C    1.108    24 H    0.821
    20   7 N    2.951 --    12 C    2.758     5 N    0.106
    21   8 O    2.053 --    14 C    1.761     7 N    0.114    13 N    0.103
    22   1 H    0.875 --    16 O    0.852
    23   1 H    0.898 --    18 O    0.873
    24   1 H    0.876 --    19 O    0.821
 ---------------------------------------------------------------------------

Topologies differ in total number of bonds
Writing topology from bond orders to xtbtopo.mol

molecular dipole:
                 x           y           z       tot (Debye)
 q only:        2.800      -1.306      -0.000
   full:        3.408      -1.060      -0.000       9.072
molecular quadrupole (traceless):
                xx          xy          yy          xz          yz          zz
 q only:      -14.336      10.064      12.218       0.001      -0.003       2.118
  q+dip:      -30.096      10.135      19.739       0.001      -0.004      10.356
   full:      -33.777       9.417      20.868       0.001      -0.005      12.908

           -------------------------------------------------
          |                Geometry Summary                 |
           -------------------------------------------------

      molecular mass/u    :      289.1643924
   center of mass at/Å    :       -0.0199438      -0.0464852       0.0000011
  moments of inertia/u·Å² :        0.1174932E+04   0.1718530E+04   0.2893462E+04
rotational constants/cm⁻¹ :        0.1434775E-01   0.9809335E-02   0.5826112E-02

 * 23 selected distances

     #   Z          #   Z                                           value/Å
     1   6 C        2   6 C                                       1.4104321
     2   6 C        3   7 N                                       1.3159057
     1   6 C        6   6 C                                       1.3922949
     5   7 N        6   6 C                                       1.3694927
     1   6 C        7   7 N                                       1.3519171
     2   6 C        8   6 C                                       1.4154291
     9   7 N       10   6 C                                       1.2820513
     4   6 C       11   6 C                                       1.3884223
     5   7 N       11   6 C                                       1.4222709 (max)
     5   7 N       12   6 C                                       1.3360090
     6   6 C       13   7 N                                       1.3289588
    13   7 N       14   6 C                                       1.3355249
     7   7 N       15   8 O                                       1.3776018
     8   6 C       15   8 O                                       1.3522399
     8   6 C       16   8 O                                       1.3167986
     9   7 N       17   7 N                                       1.1373003
    10   6 C       18   8 O                                       1.3876056
    11   6 C       19   8 O                                       1.3535423
    12   6 C       20   7 N                                       1.1435981
    14   6 C       21   8 O                                       1.1870515
    16   8 O       22   1 H                                       0.9690154
    18   8 O       23   1 H                                       0.9642880 (min)
    19   8 O       24   1 H                                       0.9708540

 * 6 distinct bonds (by element types)

   Z      Z             #   av. dist./Å        max./Å        min./Å
   6 C    6 C           4     1.4016446     1.4154291     1.3884223
   6 C    7 N           9     1.3206365     1.4222709     1.1435981
   7 N    7 N           1     1.1373003     1.1373003     1.1373003
   1 H    8 O           3     0.9680524     0.9708540     0.9642880
   6 C    8 O           5     1.3194476     1.3876056     1.1870515
   7 N    8 O           1     1.3776018     1.3776018     1.3776018


optimized geometry written to: xtbopt.xyz


           -------------------------------------------------
          | TOTAL ENERGY              -61.409894920496 Eh   |
          | GRADIENT NORM               0.000496120311 Eh/α |
          | HOMO-LUMO GAP               0.056328388232 eV   |
           -------------------------------------------------

------------------------------------------------------------------------
 * finished run on 2025/11/16 at 10:44:23.355     
------------------------------------------------------------------------
 total:
 * wall-time:     0 d,  0 h,  0 min,  1.173 sec
 *  cpu-time:     0 d,  0 h,  0 min,  1.172 sec
 * ratio c/w:     0.999 speedup
 SCF:
 * wall-time:     0 d,  0 h,  0 min,  0.031 sec
 *  cpu-time:     0 d,  0 h,  0 min,  0.031 sec
 * ratio c/w:     0.999 speedup
 ANC optimizer:
 * wall-time:     0 d,  0 h,  0 min,  1.131 sec
 *  cpu-time:     0 d,  0 h,  0 min,  1.130 sec
 * ratio c/w:     0.999 speedup

