24
 energy: -61.409894920496 gnorm: 0.000496120311 xtb: 6.6.1 (unknown)
C           -0.27172500092514        1.17017155371036       -0.00009688326409
C            1.08498341549800        0.78460623135669       -0.00005225099337
N            1.55584900991036       -0.44417080288031       -0.00005273923922
C            0.69629780404646       -1.52927795150483       -0.00003139321119
N           -1.74125428492246       -0.74461983121632       -0.00000564595109
C           -1.54679683144708        0.61099670389768       -0.00003114758169
N           -0.41344742983787        2.51463961600315       -0.00013066531190
C            1.73214104843620        2.04342560602328       -0.00001616203249
N            2.83089731682735       -2.44182270621316        0.00009624294129
C            1.57161920529778       -2.68239272713814        0.00002786257963
C           -0.68230809665823       -1.69408658246024       -0.00001985025541
C           -2.99108524610992       -1.21668162463789        0.00016906816138
N           -2.47201195206170        1.56499252230962        0.00001698646239
C           -1.92105206594036        2.78157368044226       -0.00015726155663
O            0.84854570469864        3.06705226842522       -0.00009928758687
O            3.01763620401710        2.32883851495326        0.00000430836751
N            3.96526509839310       -2.36020481671809        0.00004620675749
O            1.14756671623431       -4.00361501089772        0.00008068275803
O           -1.24798201285409       -2.92375705202289        0.00002681239597
N           -4.06519962440014       -1.60923053625145       -0.00016951744491
O           -2.36381000475640        3.88296202525192        0.00033482978951
H            3.15918446918120        3.28745976270970        0.00003210125760
H            1.90270716920066       -4.60329329554959       -0.00003476324933
H           -0.57402061182785       -3.62256554759280        0.00006246620743
