24
 energy: -46.893692878203 gnorm: 24.265988521209 xtb: 6.6.1 (unknown)
C            0.00000000000000        1.40200000000000        0.00000000000000
C            1.20900000000000        0.70100000000000        0.00000000000000
N            1.20900000000000       -0.70100000000000        0.00000000000000
C            0.00000000000000       -1.40200000000000        0.00000000000000
N           -1.20900000000000       -0.70100000000000        0.00000000000000
C           -1.20900000000000        0.70100000000000        0.00000000000000
N            0.00000000000000        2.49000000000000        0.00000000000000
C            2.40900000000000        1.39300000000000        0.00000000000000
N            2.40900000000000       -1.39300000000000        0.00000000000000
C            1.20900000000000       -2.09500000000000        0.00000000000000
C           -1.20900000000000       -2.09500000000000        0.00000000000000
C           -2.40900000000000       -1.39300000000000        0.00000000000000
N           -2.40900000000000        1.39300000000000        0.00000000000000
C           -1.20900000000000        2.09500000000000        0.00000000000000
O            0.00000000000000        3.22000000000000        0.00000000000000
O            3.42000000000000        1.96300000000000        0.00000000000000
N            3.42000000000000       -1.96300000000000        0.00000000000000
O            1.20900000000000       -2.82300000000000        0.00000000000000
O           -1.20900000000000       -2.82300000000000        0.00000000000000
N           -3.42000000000000       -1.96300000000000        0.00000000000000
O           -2.40900000000000        2.09500000000000        0.00000000000000
H            3.42000000000000        2.42000000000000        0.00000000000000
H            1.20900000000000       -3.18000000000000        0.00000000000000
H           -1.20900000000000       -3.18000000000000        0.00000000000000
24
 energy: -54.852320301521 gnorm: 11.475745145131 xtb: 6.6.1 (unknown)
C            0.00523649600988        1.38876158085715       -0.00000000000000
C            1.21429108925889        0.70253007423763       -0.00000000000000
N            1.21119029463228       -0.69235553995344        0.00000000000000
C            0.00022830770203       -1.39386238549146        0.00000000000000
N           -1.21126574916818       -0.69271187156255       -0.00000000000000
C           -1.21167094893765        0.69669653440283       -0.00000000000000
N            0.00617078579345        2.40849536182838       -0.00000000000000
C            2.39956930461371        1.38610432519617       -0.00000000000000
N            2.40729629931026       -1.38583701316424        0.00000000000000
C            1.20939985443466       -1.99597398392673       -0.00000000000000
C           -1.20936430325174       -1.99680912542060        0.00000000000000
C           -2.40781322056551       -1.38475775800598       -0.00000000000000
N           -2.41598511824330        1.27785687683216       -0.00000000000000
C           -1.21381712495691        2.10220153426238       -0.00000000000000
O            0.00380686046202        3.32164189077423       -0.00000000000000
O            3.42613526472325        1.85806650711099       -0.00000000000000
N            3.42428488363323       -1.96605531259636        0.00000000000000
O            1.20944181076757       -2.69600975706797        0.00000000000000
O           -1.20932497850244       -2.69676890559970        0.00000000000000
N           -3.42398746478747       -1.96552308856490        0.00000000000000
O           -2.41372119649988        2.20561623549368       -0.00000000000000
H            3.42192830126053        2.53064869551390       -0.00000000000000
H            1.20957104019245       -3.42543766234189        0.00000000000000
H           -1.20960048788114       -3.42551721281369        0.00000000000000
24
 energy: -58.253587612656 gnorm: 2.569248661541 xtb: 6.6.1 (unknown)
C            0.01824791908985        1.35253446786982       -0.00000000000000
C            1.22375068056433        0.70599438564277       -0.00000000000000
N            1.21718417037227       -0.67227652834393        0.00000000000000
C            0.00099099686866       -1.37324037791321        0.00000000000000
N           -1.22163991565924       -0.67257530708975       -0.00000000000000
C           -1.21441902890479        0.69201830344408       -0.00000000000000
N            0.01078008738652        2.37532697080676       -0.00000000000000
C            2.37939173772640        1.37536933874788       -0.00000000000000
N            2.40952682878773       -1.36831809283861        0.00000000000000
C            1.21239938274890       -1.78354618872346        0.00000000000000
C           -1.21046281550312       -1.78634457848120       -0.00000000000000
C           -2.41106779042768       -1.36458086279339       -0.00000000000000
N           -2.42920663313732        1.20124994786343       -0.00000000000000
C           -1.22353886685859        2.11139993218666       -0.00000000000000
O            0.01373905338856        3.40633795302089       -0.00000000000000
O            3.44073459474480        1.80581506980508       -0.00000000000000
N            3.43237695989584       -1.97213818159302        0.00000000000000
O            1.21038265284811       -2.86614557945463        0.00000000000000
O           -1.21057543966566       -2.86809973480153        0.00000000000000
N           -3.43083298365192       -1.97057139295506        0.00000000000000
O           -2.42169577421142        2.27638076209930       -0.00000000000000
H            3.42518383933029        2.59259343452940       -0.00000000000000
H            1.20977282938987       -3.51770451190445        0.00000000000000
H           -1.20902248512238       -3.51847922912382        0.00000000000000
24
 energy: -59.094143780002 gnorm: 1.689597750445 xtb: 6.6.1 (unknown)
C            0.05518858033095        1.27451204952597       -0.00000000000000
C            1.25904821162438        0.71970226213022       -0.00000000000000
N            1.24686483025025       -0.56634586597616       -0.00000000000000
C            0.00278415531153       -1.34622073617544       -0.00000000000000
N           -1.27034563291789       -0.56648576985599       -0.00000000000000
C           -1.22812010439960        0.69072284387733        0.00000000000000
N            0.02544017010610        2.46355880976309       -0.00000000000000
C            2.33942242608462        1.36714617839024       -0.00000000000000
N            2.45378642217633       -1.34602280747683        0.00000000000000
C            1.22967888699550       -1.84039575228270       -0.00000000000000
C           -1.21317577799498       -1.84137693125570       -0.00000000000000
C           -2.46636864432804       -1.33088027036302       -0.00000000000000
N           -2.47950325798301        1.18236283656419       -0.00000000000000
C           -1.24856576545058        2.14205409883262       -0.00000000000000
O            0.03777063476906        3.51101202631037       -0.00000000000000
O            3.47830304621274        1.81922139378762       -0.00000000000000
N            3.47051389712647       -1.98527866753758        0.00000000000000
O            1.21903477983810       -2.93795107415831        0.00000000000000
O           -1.21287314728313       -2.93756282592557        0.00000000000000
N           -3.46781265258237       -1.97623688490905        0.00000000000000
O           -2.46813056885988        2.29862409304385       -0.00000000000000
H            3.44968107829754        2.60594417275424       -0.00000000000000
H            1.21561797685870       -3.61916438769765        0.00000000000000
H           -1.20623954418279       -3.61993879136574        0.00000000000000
24
 energy: -59.571356810890 gnorm: 1.167618095067 xtb: 6.6.1 (unknown)
C            0.07996013208933        1.26086708783962       -0.00000000000000
C            1.29638937066326        0.74581774340060       -0.00000000000000
N            1.27390666058887       -0.51472247860887       -0.00000000000000
C            0.01545728718911       -1.33601292188722        0.00000000000000
N           -1.32821343292341       -0.52392252739281       -0.00000000000000
C           -1.25316982718413        0.71786414203460       -0.00000000000000
N            0.02628839311719        2.50099883285246       -0.00000000000000
C            2.34372552553879        1.39263015847682       -0.00000000000000
N            2.47400846623578       -1.34524720174431        0.00000000000000
C            1.24793742079721       -1.89757470323903       -0.00000000000000
C           -1.20820886075816       -1.88233073128981        0.00000000000000
C           -2.50600574570601       -1.30645219889869        0.00000000000000
N           -2.54899900272721        1.17640217820302       -0.00000000000000
C           -1.28388205962480        2.19020896899608       -0.00000000000000
O            0.07800720832416        3.61786801806342       -0.00000000000000
O            3.52754565881881        1.83499598808078       -0.00000000000000
N            3.50531247652914       -1.98855987449965        0.00000000000000
O            1.22938087675503       -3.02069112931141        0.00000000000000
O           -1.21526698395041       -3.00841020822801        0.00000000000000
N           -3.49980003223245       -1.97185790913697        0.00000000000000
O           -2.53582504741279        2.34230038433715       -0.00000000000000
H            3.48228552996752        2.64065910902474       -0.00000000000000
H            1.22309506275714       -3.73847162633153        0.00000000000000
H           -1.20192907685194       -3.72535910074099        0.00000000000000
24
 energy: -59.975449813445 gnorm: 0.730190277708 xtb: 6.6.1 (unknown)
C            0.10046255495975        1.25423615509333       -0.00000000000000
C            1.32763073576681        0.78251482293579       -0.00000000000000
N            1.29451572579391       -0.47642332939531        0.00000000000000
C            0.04648310147837       -1.33287879319664       -0.00000000000000
N           -1.41209054919432       -0.49456621889784       -0.00000000000000
C           -1.27999751067777        0.76644968045177       -0.00000000000000
N            0.00909631692803        2.55429351275919       -0.00000000000000
C            2.36915893486833        1.43728825329723        0.00000000000000
N            2.47436414751929       -1.35832856997729        0.00000000000000
C            1.26676185478293       -1.96821877694606        0.00000000000000
C           -1.18435340973164       -1.91229509407156       -0.00000000000000
C           -2.54209005030553       -1.27338363297729       -0.00000000000000
N           -2.62013746909489        1.16932731444336       -0.00000000000000
C           -1.32837927764625        2.25387411807245       -0.00000000000000
O            0.12234918098715        3.72001539824211       -0.00000000000000
O            3.58608401475412        1.84337868184344       -0.00000000000000
N            3.53490254754425       -1.97557565157404        0.00000000000000
O            1.23919008795195       -3.12992581427139        0.00000000000000
O           -1.21390513457594       -3.08049263262541        0.00000000000000
N           -3.51847668211920       -1.95929867290449        0.00000000000000
O           -2.60745488115926        2.39978013800851       -0.00000000000000
H            3.51711942099888        2.69192615437322       -0.00000000000000
H            1.22944412091922       -3.89671787770243        0.00000000000000
H           -1.18867778074817       -3.85397916498066        0.00000000000000
24
 energy: -60.280802153104 gnorm: 0.465514321953 xtb: 6.6.1 (unknown)
C            0.10851064865556        1.25748214630049       -0.00000000000000
C            1.35984682837600        0.82207870984906       -0.00000000000000
N            1.31245873705592       -0.44859598756539        0.00000000000000
C            0.10989952037584       -1.34215948400350        0.00000000000000
N           -1.51776528359676       -0.47466805933182        0.00000000000000
C           -1.31397122584867        0.81176966375146       -0.00000000000000
N           -0.02630689401326        2.59985698520364       -0.00000000000000
C            2.40536178527468        1.49050876334264       -0.00000000000000
N            2.46182744928987       -1.38841757837039        0.00000000000000
C            1.28996178227618       -2.05723349129266        0.00000000000000
C           -1.14053799484115       -1.91451946720441        0.00000000000000
C           -2.58709067649587       -1.23260702569794        0.00000000000000
N           -2.68964407153038        1.16806184475941       -0.00000000000000
C           -1.37919795551382        2.31730434152325       -0.00000000000000
O            0.16359487798782        3.80880369307997       -0.00000000000000
O            3.64587862305953        1.85054608650219       -0.00000000000000
N            3.56060830334021       -1.94607519346103        0.00000000000000
O            1.25348984877689       -3.25466162322839        0.00000000000000
O           -1.21098133562574       -3.13371086029045        0.00000000000000
N           -3.52956364743950       -1.94227619694800       -0.00000000000000
O           -2.67668972878643        2.46578670962585       -0.00000000000000
H            3.55175803572648        2.74497553834702       -0.00000000000000
H            1.23974867909624       -4.07771909801815        0.00000000000000
H           -1.16919630559961       -3.96353041687289        0.00000000000000
24
 energy: -60.491980193803 gnorm: 0.323267664141 xtb: 6.6.1 (unknown)
C            0.10437376065974        1.27223895039560       -0.00000000000000
C            1.38866975948338        0.85649778390698       -0.00000000000000
N            1.33323089512975       -0.43368826039853        0.00000000000000
C            0.19946924301536       -1.36539203227035       -0.00000000000000
N           -1.61310603307949       -0.46981112305846       -0.00000000000001
C           -1.34672358945886        0.84590573416691       -0.00000000000000
N           -0.07648887845581        2.64300354021828       -0.00000000000000
C            2.44338838102344        1.54831558410402        0.00000000000000
N            2.44448875373245       -1.43498924575511        0.00000000000000
C            1.31641264589842       -2.16073231461707        0.00000000000000
C           -1.08260375794902       -1.89175051355290       -0.00000000000000
C           -2.65257131457424       -1.19606965129362       -0.00000000000001
N           -2.75098165785283        1.17854865727608       -0.00000000000000
C           -1.42859878953897        2.37822768789359       -0.00000000000000
O            0.19399993294895        3.88206398181761       -0.00000000000000
O            3.70131463581482        1.86283947350937        0.00000000000000
N            3.58017008689219       -1.90144898542676        0.00000000000000
O            1.27118312824863       -3.39029793868951        0.00000000000000
O           -1.20979650440198       -3.15993364727779        0.00000000000000
N           -3.54970701345114       -1.93021701039923        0.00000000000002
O           -2.73571490441649        2.53815617098768       -0.00000000000000
H            3.58712671263323        2.79823092627765        0.00000000000000
H            1.25311111647117       -4.26290357797070        0.00000000000000
H           -1.14864660877266       -4.04579418984375        0.00000000000000
24
 energy: -60.631840423863 gnorm: 0.270703181933 xtb: 6.6.1 (unknown)
C            0.08740815865627        1.29953736762248       -0.00000000000000
C            1.40460867202906        0.88121456317062       -0.00000000000000
N            1.36150578845029       -0.44108261578770        0.00000000000000
C            0.29330996734021       -1.39890547420979        0.00000000000003
N           -1.66541786493881       -0.47948405914010        0.00000000000006
C           -1.36850489364596        0.86606470579960        0.00000000000002
N           -0.14042040697037        2.69114213707126       -0.00000000000001
C            2.46930327735019        1.60788994855388       -0.00000000000001
N            2.43970405185149       -1.49638028055118       -0.00000000000000
C            1.34672158488985       -2.27009769800747        0.00000000000000
C           -1.02214044019971       -1.85314913528921        0.00000000000004
C           -2.73747037236802       -1.17015390329463        0.00000000000009
N           -2.79289358350538        1.20342740748909        0.00000000000001
C           -1.46960248816966        2.43789188781198       -0.00000000000000
O            0.20320155432764        3.94170207039928       -0.00000000000002
O            3.74418878575024        1.88065987343461       -0.00000000000002
N            3.60189641698369       -1.85134850304513       -0.00000000000001
O            1.29220379053425       -3.52531288786719        0.00000000000000
O           -1.21415683870383       -3.16088256461752        0.00000000000002
N           -3.59490286895740       -1.93207390138455       -0.00000000000018
O           -2.77572587473329        2.61351092784688        0.00000000000000
H            3.62280709792355        2.84691200501130       -0.00000000000002
H            1.26982962484837       -4.43701593122837        0.00000000000000
H           -1.13345313874264       -4.09306593978817        0.00000000000000
24
 energy: -60.735048012645 gnorm: 0.236639342327 xtb: 6.6.1 (unknown)
C            0.05949012298542        1.32603298199731       -0.00000000000006
C            1.40572934671799        0.89388380357604        0.00000000000001
N            1.39737355758973       -0.45860354643071       -0.00000000000005
C            0.38748153365818       -1.43869232230724       -0.00000000000033
N           -1.68798791849611       -0.50831413902235       -0.00000000000060
C           -1.37702621568662        0.86419086001436       -0.00000000000027
N           -0.21951864006359        2.74070561943078        0.00000000000006
C            2.46978654980624        1.66580892026866        0.00000000000013
N            2.45728059999848       -1.56508727866201        0.00000000000007
C            1.38271893531899       -2.38028910199317       -0.00000000000002
C           -0.95786502197937       -1.79826915711974       -0.00000000000043
C           -2.82984531902059       -1.13510282891842       -0.00000000000073
N           -2.81278270940773        1.23172597765969       -0.00000000000017
C           -1.50306873555747        2.49394295898383       -0.00000000000003
O            0.19490934169965        3.98700269159612        0.00000000000014
O            3.76667848794290        1.89614135711979        0.00000000000018
N            3.62963237704456       -1.79608722233853        0.00000000000018
O            1.31815090220244       -3.65718238231982        0.00000000000001
O           -1.22715835499424       -3.13878350572101       -0.00000000000012
N           -3.65488654601792       -1.92347305474608        0.00000000000184
O           -2.79589586628910        2.68810199539835       -0.00000000000005
H            3.65201193429879        2.88652115851377        0.00000000000018
H            1.29171882941158       -4.60185554205618        0.00000000000003
H           -1.12492719116214       -4.11131824292349        0.00000000000003
24
 energy: -60.803309417311 gnorm: 0.203152737052 xtb: 6.6.1 (unknown)
C            0.02137408333371        1.34811514291811        0.00000000000095
C            1.39350330675271        0.89594009676386        0.00000000000022
N            1.43480496769432       -0.48381787285273        0.00000000000099
C            0.46475374809108       -1.47955068208848        0.00000000000479
N           -1.69073287567862       -0.55395782065342        0.00000000000804
C           -1.37385868437937        0.84289779969810        0.00000000000386
N           -0.29896043651734        2.78464028693610       -0.00000000000089
C            2.44498318934846        1.72059453987268       -0.00000000000201
N            2.50026284517237       -1.63878758342077       -0.00000000000081
C            1.42113785455612       -2.47917541145805        0.00000000000050
C           -0.89720411210468       -1.73661605246943        0.00000000000556
C           -2.91189799482715       -1.09297504139114        0.00000000000753
N           -2.81045131154078        1.26137083059793        0.00000000000243
C           -1.53206599770815        2.54219288175583        0.00000000000044
O            0.17615025251350        4.01118210591469       -0.00000000000212
O            3.76463193625821        1.91250011199576       -0.00000000000259
N            3.66630642138506       -1.75295837333517       -0.00000000000267
O            1.34632463811410       -3.77263161969650       -0.00000000000000
O           -1.24736599628940       -3.09776315651861        0.00000000000178
N           -3.71920155394489       -1.90078228391943       -0.00000000002372
O           -2.79814704586691        2.75460101458766        0.00000000000071
H            3.67137265650999        2.91685335795882       -0.00000000000255
H            1.31716634684174       -4.74096806188563       -0.00000000000027
H           -1.12088623771404       -4.09990420931027       -0.00000000000015
24
 energy: -60.841065811624 gnorm: 0.193903859771 xtb: 6.6.1 (unknown)
C           -0.01720687273705        1.35848020302786       -0.00000000002351
C            1.36874616519621        0.88365562739993       -0.00000000001286
N            1.46653347343418       -0.51217420881430       -0.00000000002886
C            0.51225397993361       -1.51389090080033       -0.00000000009046
N           -1.68164949340259       -0.59719920032687       -0.00000000013653
C           -1.37184197387809        0.81402211864392       -0.00000000007460
N           -0.34525280864813        2.80734736055098        0.00000000001519
C            2.39584678344114        1.76004790156674        0.00000000004025
N            2.55710306315816       -1.70645473681967        0.00000000001219
C            1.45642225556434       -2.55036724899756       -0.00000000001640
C           -0.85016391422643       -1.68581292540498       -0.00000000009106
C           -2.96049639545157       -1.05486235821182       -0.00000000007500
N           -2.79589237776723        1.29363063898372       -0.00000000004870
C           -1.55786988133752        2.57681159301741       -0.00000000001208
O            0.17238247479743        4.00540062608813        0.00000000004120
O            3.72797652604838        1.93082441601038        0.00000000005141
N            3.71420074542717       -1.73105504179874        0.00000000005679
O            1.37374057914355       -3.85475173864288       -0.00000000000456
O           -1.26768723011322       -3.04966813575720       -0.00000000003268
N           -3.77269148872382       -1.85903711488999        0.00000000039825
O           -2.79290553607027        2.80757815637133       -0.00000000001775
H            3.66345246625468        2.93689441951783        0.00000000005140
H            1.34439016113845       -4.83392601921500        0.00000000000145
H           -1.11739070118134       -4.06449343149901       -0.00000000000309
24
 energy: -60.868480820857 gnorm: 0.192272076316 xtb: 6.6.1 (unknown)
C           -0.05441329326448        1.35458473991158        0.00000000053426
C            1.33384374290831        0.86053365619947        0.00000000037908
N            1.49095426765628       -0.53481676603437        0.00000000071984
C            0.54162934371718       -1.53725041609313        0.00000000183283
N           -1.67393144410505       -0.62831606273588        0.00000000258252
C           -1.37686266181967        0.78352334689587        0.00000000150459
N           -0.36000198196392        2.80832254353069       -0.00000000027898
C            2.32734298741976        1.78241458620814       -0.00000000083430
N            2.61545766585801       -1.76764237561895       -0.00000000020039
C            1.48799159381512       -2.59471127500460        0.00000000044009
C           -0.80673569123108       -1.64797277595355        0.00000000168676
C           -2.98174573004771       -1.02672069956984        0.00000000091725
N           -2.77503723503585        1.33138702847356        0.00000000099741
C           -1.58074715316227        2.60424633849700        0.00000000028260
O            0.19250538706151        3.97323124987689       -0.00000000082572
O            3.66323074253239        1.94473805970734       -0.00000000109091
N            3.76370475456510       -1.72456834911961       -0.00000000129453
O            1.39872822615060       -3.90821538027918        0.00000000017735
O           -1.27994091341090       -2.99956053208760        0.00000000063130
N           -3.81837640984850       -1.81040166251434       -0.00000000761038
O           -2.78819110160517        2.85732308051335        0.00000000039857
H            3.63310627814367        2.94476756434893       -0.00000000109038
H            1.37167883196698       -4.88951605611121        0.00000000004387
H           -1.10219020630027       -4.01437984304068        0.00000000009729
24
 energy: -60.897921492152 gnorm: 0.196438176090 xtb: 6.6.1 (unknown)
C           -0.09523027310778        1.33544464143557       -0.00000001077833
C            1.28890560610166        0.82988226516207       -0.00000000814505
N            1.51078463122217       -0.54731641602200       -0.00000001508382
C            0.56369372595848       -1.55204843999193       -0.00000003720778
N           -1.67426448089141       -0.65081472295951       -0.00000005219615
C           -1.38919203600918        0.74677891069682       -0.00000003016815
N           -0.35651464327896        2.78730725964436        0.00000000575453
C            2.24235578099751        1.79301805465002        0.00000001682715
N            2.67745924298809       -1.82887120810501        0.00000000375998
C            1.52146983632851       -2.61596971014518       -0.00000000924907
C           -0.76186836516984       -1.62315228627016       -0.00000003390177
C           -2.98574155341447       -1.01092539027538       -0.00000001915509
N           -2.74370437898712        1.37653126895976       -0.00000001950325
C           -1.60152088326117        2.62923283807881       -0.00000000534106
O            0.23200900616167        3.91145629660780        0.00000001685964
O            3.57596380477750        1.95390295818603        0.00000002145362
N            3.81580349363241       -1.72778905477473        0.00000002810433
O            1.42572862047537       -3.93904844916424       -0.00000000369332
O           -1.29050399804213       -2.94654247309864       -0.00000001246869
N           -3.86745196246655       -1.74812745387548        0.00000015265253
O           -2.78829173043066        2.91133765277149       -0.00000000733407
H            3.59281828496099        2.94148763411279        0.00000002131675
H            1.40474551051194       -4.91553986318669       -0.00000000086950
H           -1.07545323905699       -3.94923431243671       -0.00000000163340
24
 energy: -60.932861832677 gnorm: 0.200853879079 xtb: 6.6.1 (unknown)
C           -0.13801772434035        1.30132008958758        0.00000000404208
C            1.24043733935221        0.79756800104473        0.00000003429939
N            1.52610160682222       -0.54379940629887        0.00000002826249
C            0.58393406244361       -1.56030770685805        0.00000002493494
N           -1.68539894152094       -0.66752182045273       -0.00000000479787
C           -1.40539735232463        0.70123352231670        0.00000000569832
N           -0.34396492846317        2.74338166437753       -0.00000001680911
C            2.15369631404283        1.79709668427600       -0.00000003448455
N            2.74003019209494       -1.89088074475147        0.00000000120916
C            1.56030282510092       -2.61174290567446        0.00000001655577
C           -0.72438920086510       -1.61819757410011       -0.00000002154523
C           -2.97907647582385       -1.01417131987182       -0.00000003863517
N           -2.69441789554393        1.42384528917357       -0.00000000727380
C           -1.61821529835750        2.65116590597230       -0.00000000503594
O            0.28382938498197        3.81937483138242       -0.00000003052586
O            3.47775009165710        1.96300132914492        0.00000002184750
N            3.87055281388609       -1.73747733266431       -0.00000005470861
O            1.45759577284082       -3.94428092419109        0.00000000741409
O           -1.31428884425277       -2.89566595690320       -0.00000002059584
N           -3.92819949708569       -1.67189264672654        0.00000008098188
O           -2.79744497415991        2.96626294119840       -0.00000001237918
H            3.55797731501700        2.93262442860681        0.00000004105483
H            1.44856095177467       -4.90890712911773        0.00000000187260
H           -1.04995753727651       -3.87102921947075       -0.00000002138186
24
 energy: -60.969601718032 gnorm: 0.197393709146 xtb: 6.6.1 (unknown)
C           -0.17906743587313        1.26126211308089       -0.00000000458539
C            1.19732499657537        0.77403901195208       -0.00000003094476
N            1.53582242611530       -0.52132695452313        0.00000003492967
C            0.60922726066451       -1.56300915766816        0.00000005672546
N           -1.70631654185994       -0.68195625164335       -0.00000001596491
C           -1.42032842096037        0.65364947287104       -0.00000000565267
N           -0.33753164967654        2.68745078864042       -0.00000000693412
C            2.07701918747365        1.80684889732003       -0.00000043499065
N            2.79574072505894       -1.95869007984077        0.00000003678106